 Entering Gaussian System, Link 0=g16
 Initial command:
 /software/local/apps/gaussian-16.0/g16/l1.exe "KM3/cterm/Gau-3286846.inp" -scrdir="KM3/cterm/"
 Entering Link 1 = /software/local/apps/gaussian-16.0/g16/l1.exe PID=   3286847.
  
 Copyright (c) 1988-2019, Gaussian, Inc.  All Rights Reserved.
  
 This is part of the Gaussian(R) 16 program.  It is based on
 the Gaussian(R) 09 system (copyright 2009, Gaussian, Inc.),
 the Gaussian(R) 03 system (copyright 2003, Gaussian, Inc.),
 the Gaussian(R) 98 system (copyright 1998, Gaussian, Inc.),
 the Gaussian(R) 94 system (copyright 1995, Gaussian, Inc.),
 the Gaussian 92(TM) system (copyright 1992, Gaussian, Inc.),
 the Gaussian 90(TM) system (copyright 1990, Gaussian, Inc.),
 the Gaussian 88(TM) system (copyright 1988, Gaussian, Inc.),
 the Gaussian 86(TM) system (copyright 1986, Carnegie Mellon
 University), and the Gaussian 82(TM) system (copyright 1983,
 Carnegie Mellon University). Gaussian is a federally registered
 trademark of Gaussian, Inc.
  
 This software contains proprietary and confidential information,
 including trade secrets, belonging to Gaussian, Inc.
  
 This software is provided under written license and may be
 used, copied, transmitted, or stored only in accord with that
 written license.
  
 The following legend is applicable only to US Government
 contracts under FAR:
  
                    RESTRICTED RIGHTS LEGEND
  
 Use, reproduction and disclosure by the US Government is
 subject to restrictions as set forth in subparagraphs (a)
 and (c) of the Commercial Computer Software - Restricted
 Rights clause in FAR 52.227-19.
  
 Gaussian, Inc.
 340 Quinnipiac St., Bldg. 40, Wallingford CT 06492
  
  
 ---------------------------------------------------------------
 Warning -- This program may not be used in any manner that
 competes with the business of Gaussian, Inc. or will provide
 assistance to any competitor of Gaussian, Inc.  The licensee
 of this program is prohibited from giving any competitor of
 Gaussian, Inc. access to this program.  By using this program,
 the user acknowledges that Gaussian, Inc. is engaged in the
 business of creating and licensing software in the field of
 computational chemistry and represents and warrants to the
 licensee that it is not a competitor of Gaussian, Inc. and that
 it will not use this program in any manner prohibited above.
 ---------------------------------------------------------------
  

 Cite this work as:
 Gaussian 16, Revision C.01,
 M. J. Frisch, G. W. Trucks, H. B. Schlegel, G. E. Scuseria, 
 M. A. Robb, J. R. Cheeseman, G. Scalmani, V. Barone, 
 G. A. Petersson, H. Nakatsuji, X. Li, M. Caricato, A. V. Marenich, 
 J. Bloino, B. G. Janesko, R. Gomperts, B. Mennucci, H. P. Hratchian, 
 J. V. Ortiz, A. F. Izmaylov, J. L. Sonnenberg, D. Williams-Young, 
 F. Ding, F. Lipparini, F. Egidi, J. Goings, B. Peng, A. Petrone, 
 T. Henderson, D. Ranasinghe, V. G. Zakrzewski, J. Gao, N. Rega, 
 G. Zheng, W. Liang, M. Hada, M. Ehara, K. Toyota, R. Fukuda, 
 J. Hasegawa, M. Ishida, T. Nakajima, Y. Honda, O. Kitao, H. Nakai, 
 T. Vreven, K. Throssell, J. A. Montgomery, Jr., J. E. Peralta, 
 F. Ogliaro, M. J. Bearpark, J. J. Heyd, E. N. Brothers, K. N. Kudin, 
 V. N. Staroverov, T. A. Keith, R. Kobayashi, J. Normand, 
 K. Raghavachari, A. P. Rendell, J. C. Burant, S. S. Iyengar, 
 J. Tomasi, M. Cossi, J. M. Millam, M. Klene, C. Adamo, R. Cammi, 
 J. W. Ochterski, R. L. Martin, K. Morokuma, O. Farkas, 
 J. B. Foresman, and D. J. Fox, Gaussian, Inc., Wallingford CT, 2019.
 
 ******************************************
 Gaussian 16:  ES64L-G16RevC.01  3-Jul-2019
                31-May-2026 
 ******************************************
 %nprocshared=16
 Will use up to   16 processors via shared memory.
 %mem=512MB
 %chk=KM3_cterm_opt.chk
 -------------------
 #P b3lyp/6-31g* opt
 -------------------
 1/18=20,19=15,26=3,38=1/1,3;
 2/9=110,12=2,17=6,18=5,40=1/2;
 3/5=1,6=6,7=1,11=2,25=1,30=1,71=1,74=-5/1,2,3;
 4//1;
 5/5=2,38=5/2;
 6/7=2,8=2,9=2,10=2,28=1/1;
 7//1,2,3,16;
 1/18=20,19=15,26=3/3(2);
 2/9=110/2;
 99//99;
 2/9=110/2;
 3/5=1,6=6,7=1,11=2,25=1,30=1,71=1,74=-5/1,2,3;
 4/5=5,16=3,69=1/1;
 5/5=2,38=5/2;
 7//1,2,3,16;
 1/18=20,19=15,26=3/3(-5);
 2/9=110/2;
 6/7=2,8=2,9=2,10=2,19=2,28=1/1;
 99/9=1/99;
 Leave Link    1 at Sun May 31 21:38:10 2026, MaxMem=    67108864 cpu:               6.6 elap:               0.4
 (Enter /software/local/apps/gaussian-16.0/g16/l101.exe)
 --------------------------------------------
 KM3_cterm b3lyp/6-31g* geometry optimisation
 --------------------------------------------
 Symbolic Z-matrix:
 Charge =  0 Multiplicity = 1
 C                     20.042    3.684     7.511 
 H                     21.002    3.315     7.871 
 H                     19.479    2.863     7.069 
 H                     19.479    4.104     8.345 
 C                     20.274    4.762     6.462 
 O                     19.459    5.673     6.332 
 N                     21.362    4.712     5.69 
 H                     22.007    3.947     5.829 
 C                     21.611    5.728     4.679 
 C                     22.926    5.413     3.952 
 O                     23.598    4.426     4.253 
 C                     21.608    7.103     5.352 
 C                     21.681    8.266     4.357 
 C                     21.731    9.655     5.005 
 C                     21.805    10.833    4.024 
 N                     21.851    12.142    4.698 
 C                     21.922    13.247    3.656 
 C                     20.6      12.323    5.543 
 C                     23.079    12.21     5.592 
 O                     23.346    6.249     2.96 
 H                     20.758    5.785     4.002 
 H                     20.692    7.224     5.93 
 H                     22.469    7.185     6.015 
 H                     22.579    8.168     3.748 
 H                     20.802    8.249     3.712 
 H                     20.836    9.808     5.607 
 H                     22.613    9.727     5.642 
 H                     22.703    10.743    3.414 
 H                     20.926    10.824    3.379 
 H                     23.113    13.178    6.09 
 H                     23.029    11.418    6.339 
 H                     23.976    12.081    4.987 
 H                     21.956    14.215    4.155 
 H                     22.819    13.118    3.051 
 H                     21.041    13.2      3.016 
 H                     20.635    13.291    6.041 
 H                     19.719    12.275    4.903 
 H                     20.549    11.531    6.291 
 
 ITRead=  0  0  0  0  0  0  0  0  0  0  0  0  0  0  0  0  0  0  0  0
 ITRead=  0  0  0  0  0  0  0  0  0  0  0  0  0  0  0  0  0  0
 MicOpt= -1 -1 -1 -1 -1 -1 -1 -1 -1 -1 -1 -1 -1 -1 -1 -1 -1 -1 -1 -1
 MicOpt= -1 -1 -1 -1 -1 -1 -1 -1 -1 -1 -1 -1 -1 -1 -1 -1 -1 -1
 NAtoms=     38 NQM=       38 NQMF=       0 NMMI=      0 NMMIF=      0
                NMic=       0 NMicF=      0.
                    Isotopes and Nuclear Properties:
 (Nuclear quadrupole moments (NQMom) in fm**2, nuclear magnetic moments (NMagM)
  in nuclear magnetons)

  Atom         1           2           3           4           5           6           7           8           9          10
 IAtWgt=          12           1           1           1          12          16          14           1          12          12
 AtmWgt=  12.0000000   1.0078250   1.0078250   1.0078250  12.0000000  15.9949146  14.0030740   1.0078250  12.0000000  12.0000000
 NucSpn=           0           1           1           1           0           0           2           1           0           0
 AtZEff=  -0.0000000  -0.0000000  -0.0000000  -0.0000000  -0.0000000  -0.0000000  -0.0000000  -0.0000000  -0.0000000  -0.0000000
 NQMom=    0.0000000   0.0000000   0.0000000   0.0000000   0.0000000   0.0000000   2.0440000   0.0000000   0.0000000   0.0000000
 NMagM=    0.0000000   2.7928460   2.7928460   2.7928460   0.0000000   0.0000000   0.4037610   2.7928460   0.0000000   0.0000000
 AtZNuc=   6.0000000   1.0000000   1.0000000   1.0000000   6.0000000   8.0000000   7.0000000   1.0000000   6.0000000   6.0000000

  Atom        11          12          13          14          15          16          17          18          19          20
 IAtWgt=          16          12          12          12          12          14          12          12          12          16
 AtmWgt=  15.9949146  12.0000000  12.0000000  12.0000000  12.0000000  14.0030740  12.0000000  12.0000000  12.0000000  15.9949146
 NucSpn=           0           0           0           0           0           2           0           0           0           0
 AtZEff=  -0.0000000  -0.0000000  -0.0000000  -0.0000000  -0.0000000  -0.0000000  -0.0000000  -0.0000000  -0.0000000  -0.0000000
 NQMom=    0.0000000   0.0000000   0.0000000   0.0000000   0.0000000   2.0440000   0.0000000   0.0000000   0.0000000   0.0000000
 NMagM=    0.0000000   0.0000000   0.0000000   0.0000000   0.0000000   0.4037610   0.0000000   0.0000000   0.0000000   0.0000000
 AtZNuc=   8.0000000   6.0000000   6.0000000   6.0000000   6.0000000   7.0000000   6.0000000   6.0000000   6.0000000   8.0000000

  Atom        21          22          23          24          25          26          27          28          29          30
 IAtWgt=           1           1           1           1           1           1           1           1           1           1
 AtmWgt=   1.0078250   1.0078250   1.0078250   1.0078250   1.0078250   1.0078250   1.0078250   1.0078250   1.0078250   1.0078250
 NucSpn=           1           1           1           1           1           1           1           1           1           1
 AtZEff=  -0.0000000  -0.0000000  -0.0000000  -0.0000000  -0.0000000  -0.0000000  -0.0000000  -0.0000000  -0.0000000  -0.0000000
 NQMom=    0.0000000   0.0000000   0.0000000   0.0000000   0.0000000   0.0000000   0.0000000   0.0000000   0.0000000   0.0000000
 NMagM=    2.7928460   2.7928460   2.7928460   2.7928460   2.7928460   2.7928460   2.7928460   2.7928460   2.7928460   2.7928460
 AtZNuc=   1.0000000   1.0000000   1.0000000   1.0000000   1.0000000   1.0000000   1.0000000   1.0000000   1.0000000   1.0000000

  Atom        31          32          33          34          35          36          37          38
 IAtWgt=           1           1           1           1           1           1           1           1
 AtmWgt=   1.0078250   1.0078250   1.0078250   1.0078250   1.0078250   1.0078250   1.0078250   1.0078250
 NucSpn=           1           1           1           1           1           1           1           1
 AtZEff=  -0.0000000  -0.0000000  -0.0000000  -0.0000000  -0.0000000  -0.0000000  -0.0000000  -0.0000000
 NQMom=    0.0000000   0.0000000   0.0000000   0.0000000   0.0000000   0.0000000   0.0000000   0.0000000
 NMagM=    2.7928460   2.7928460   2.7928460   2.7928460   2.7928460   2.7928460   2.7928460   2.7928460
 AtZNuc=   1.0000000   1.0000000   1.0000000   1.0000000   1.0000000   1.0000000   1.0000000   1.0000000
 Leave Link  101 at Sun May 31 21:38:11 2026, MaxMem=    67108864 cpu:               2.1 elap:               0.1
 (Enter /software/local/apps/gaussian-16.0/g16/l103.exe)

 GradGradGradGradGradGradGradGradGradGradGradGradGradGradGradGradGradGrad
 Berny optimization.
 Initialization pass.
                           ----------------------------
                           !    Initial Parameters    !
                           ! (Angstroms and Degrees)  !
 --------------------------                            --------------------------
 ! Name  Definition              Value          Derivative Info.                !
 --------------------------------------------------------------------------------
 ! R1    R(1,2)                  1.0897         estimate D2E/DX2                !
 ! R2    R(1,3)                  1.0892         estimate D2E/DX2                !
 ! R3    R(1,4)                  1.0904         estimate D2E/DX2                !
 ! R4    R(1,5)                  1.5219         estimate D2E/DX2                !
 ! R5    R(5,6)                  1.2292         estimate D2E/DX2                !
 ! R6    R(5,7)                  1.335          estimate D2E/DX2                !
 ! R7    R(7,8)                  1.0102         estimate D2E/DX2                !
 ! R8    R(7,9)                  1.4548         estimate D2E/DX2                !
 ! R9    R(9,10)                 1.5352         estimate D2E/DX2                !
 ! R10   R(9,12)                 1.5309         estimate D2E/DX2                !
 ! R11   R(9,21)                 1.0905         estimate D2E/DX2                !
 ! R12   R(10,11)                1.2314         estimate D2E/DX2                !
 ! R13   R(10,20)                1.3636         estimate D2E/DX2                !
 ! R14   R(12,13)                1.5323         estimate D2E/DX2                !
 ! R15   R(12,22)                1.0899         estimate D2E/DX2                !
 ! R16   R(12,23)                1.0898         estimate D2E/DX2                !
 ! R17   R(13,14)                1.5335         estimate D2E/DX2                !
 ! R18   R(13,24)                1.0894         estimate D2E/DX2                !
 ! R19   R(13,25)                1.0904         estimate D2E/DX2                !
 ! R20   R(14,15)                1.5348         estimate D2E/DX2                !
 ! R21   R(14,26)                1.0894         estimate D2E/DX2                !
 ! R22   R(14,27)                1.0904         estimate D2E/DX2                !
 ! R23   R(15,16)                1.473          estimate D2E/DX2                !
 ! R24   R(15,28)                1.0893         estimate D2E/DX2                !
 ! R25   R(15,29)                1.0903         estimate D2E/DX2                !
 ! R26   R(16,17)                1.5205         estimate D2E/DX2                !
 ! R27   R(16,18)                1.5205         estimate D2E/DX2                !
 ! R28   R(16,19)                1.5205         estimate D2E/DX2                !
 ! R29   R(17,33)                1.0896         estimate D2E/DX2                !
 ! R30   R(17,34)                1.0896         estimate D2E/DX2                !
 ! R31   R(17,35)                1.0899         estimate D2E/DX2                !
 ! R32   R(18,36)                1.0892         estimate D2E/DX2                !
 ! R33   R(18,37)                1.09           estimate D2E/DX2                !
 ! R34   R(18,38)                1.0906         estimate D2E/DX2                !
 ! R35   R(19,30)                1.0891         estimate D2E/DX2                !
 ! R36   R(19,31)                1.0898         estimate D2E/DX2                !
 ! R37   R(19,32)                1.0896         estimate D2E/DX2                !
 ! A1    A(2,1,3)              109.5239         estimate D2E/DX2                !
 ! A2    A(2,1,4)              109.4289         estimate D2E/DX2                !
 ! A3    A(2,1,5)              109.4676         estimate D2E/DX2                !
 ! A4    A(3,1,4)              109.5017         estimate D2E/DX2                !
 ! A5    A(3,1,5)              109.4502         estimate D2E/DX2                !
 ! A6    A(4,1,5)              109.455          estimate D2E/DX2                !
 ! A7    A(1,5,6)              119.7855         estimate D2E/DX2                !
 ! A8    A(1,5,7)              119.7543         estimate D2E/DX2                !
 ! A9    A(6,5,7)              120.4602         estimate D2E/DX2                !
 ! A10   A(5,7,8)              117.978          estimate D2E/DX2                !
 ! A11   A(5,7,9)              121.0115         estimate D2E/DX2                !
 ! A12   A(8,7,9)              121.0105         estimate D2E/DX2                !
 ! A13   A(7,9,10)             109.4144         estimate D2E/DX2                !
 ! A14   A(7,9,12)             108.7495         estimate D2E/DX2                !
 ! A15   A(7,9,21)             109.5153         estimate D2E/DX2                !
 ! A16   A(10,9,12)            113.2126         estimate D2E/DX2                !
 ! A17   A(10,9,21)            112.7517         estimate D2E/DX2                !
 ! A18   A(12,9,21)            102.9701         estimate D2E/DX2                !
 ! A19   A(9,10,11)            121.0734         estimate D2E/DX2                !
 ! A20   A(9,10,20)            118.8507         estimate D2E/DX2                !
 ! A21   A(11,10,20)           120.0758         estimate D2E/DX2                !
 ! A22   A(9,12,13)            113.3379         estimate D2E/DX2                !
 ! A23   A(9,12,22)            109.5432         estimate D2E/DX2                !
 ! A24   A(9,12,23)            109.4808         estimate D2E/DX2                !
 ! A25   A(13,12,22)           107.467          estimate D2E/DX2                !
 ! A26   A(13,12,23)           107.4759         estimate D2E/DX2                !
 ! A27   A(22,12,23)           109.4528         estimate D2E/DX2                !
 ! A28   A(12,13,14)           114.4957         estimate D2E/DX2                !
 ! A29   A(12,13,24)           109.5107         estimate D2E/DX2                !
 ! A30   A(12,13,25)           109.5041         estimate D2E/DX2                !
 ! A31   A(14,13,24)           106.9064         estimate D2E/DX2                !
 ! A32   A(14,13,25)           106.8794         estimate D2E/DX2                !
 ! A33   A(24,13,25)           109.4148         estimate D2E/DX2                !
 ! A34   A(13,14,15)           115.2573         estimate D2E/DX2                !
 ! A35   A(13,14,26)           109.5067         estimate D2E/DX2                !
 ! A36   A(13,14,27)           109.4537         estimate D2E/DX2                !
 ! A37   A(15,14,26)           106.5601         estimate D2E/DX2                !
 ! A38   A(15,14,27)           106.4832         estimate D2E/DX2                !
 ! A39   A(26,14,27)           109.4174         estimate D2E/DX2                !
 ! A40   A(14,15,16)           113.0234         estimate D2E/DX2                !
 ! A41   A(14,15,28)           109.5279         estimate D2E/DX2                !
 ! A42   A(14,15,29)           109.4462         estimate D2E/DX2                !
 ! A43   A(16,15,28)           107.692          estimate D2E/DX2                !
 ! A44   A(16,15,29)           107.6494         estimate D2E/DX2                !
 ! A45   A(28,15,29)           109.4298         estimate D2E/DX2                !
 ! A46   A(15,16,17)           109.4937         estimate D2E/DX2                !
 ! A47   A(15,16,18)           109.5348         estimate D2E/DX2                !
 ! A48   A(15,16,19)           109.5113         estimate D2E/DX2                !
 ! A49   A(17,16,18)           109.4371         estimate D2E/DX2                !
 ! A50   A(17,16,19)           109.4346         estimate D2E/DX2                !
 ! A51   A(18,16,19)           109.4156         estimate D2E/DX2                !
 ! A52   A(16,17,33)           109.4665         estimate D2E/DX2                !
 ! A53   A(16,17,34)           109.4458         estimate D2E/DX2                !
 ! A54   A(16,17,35)           109.4707         estimate D2E/DX2                !
 ! A55   A(33,17,34)           109.4982         estimate D2E/DX2                !
 ! A56   A(33,17,35)           109.4176         estimate D2E/DX2                !
 ! A57   A(34,17,35)           109.5285         estimate D2E/DX2                !
 ! A58   A(16,18,36)           109.4797         estimate D2E/DX2                !
 ! A59   A(16,18,37)           109.4792         estimate D2E/DX2                !
 ! A60   A(16,18,38)           109.4632         estimate D2E/DX2                !
 ! A61   A(36,18,37)           109.4866         estimate D2E/DX2                !
 ! A62   A(36,18,38)           109.4712         estimate D2E/DX2                !
 ! A63   A(37,18,38)           109.4474         estimate D2E/DX2                !
 ! A64   A(16,19,30)           109.5004         estimate D2E/DX2                !
 ! A65   A(16,19,31)           109.4785         estimate D2E/DX2                !
 ! A66   A(16,19,32)           109.4575         estimate D2E/DX2                !
 ! A67   A(30,19,31)           109.5066         estimate D2E/DX2                !
 ! A68   A(30,19,32)           109.4757         estimate D2E/DX2                !
 ! A69   A(31,19,32)           109.4086         estimate D2E/DX2                !
 ! D1    D(2,1,5,6)           -149.4196         estimate D2E/DX2                !
 ! D2    D(2,1,5,7)             30.532          estimate D2E/DX2                !
 ! D3    D(3,1,5,6)             90.531          estimate D2E/DX2                !
 ! D4    D(3,1,5,7)            -89.5174         estimate D2E/DX2                !
 ! D5    D(4,1,5,6)            -29.4835         estimate D2E/DX2                !
 ! D6    D(4,1,5,7)            150.4681         estimate D2E/DX2                !
 ! D7    D(1,5,7,8)              0.0305         estimate D2E/DX2                !
 ! D8    D(1,5,7,9)           -179.9898         estimate D2E/DX2                !
 ! D9    D(6,5,7,8)            179.9819         estimate D2E/DX2                !
 ! D10   D(6,5,7,9)             -0.0385         estimate D2E/DX2                !
 ! D11   D(5,7,9,10)          -179.9828         estimate D2E/DX2                !
 ! D12   D(5,7,9,12)            55.8951         estimate D2E/DX2                !
 ! D13   D(5,7,9,21)           -55.9299         estimate D2E/DX2                !
 ! D14   D(8,7,9,10)            -0.0037         estimate D2E/DX2                !
 ! D15   D(8,7,9,12)          -124.1259         estimate D2E/DX2                !
 ! D16   D(8,7,9,21)           124.0492         estimate D2E/DX2                !
 ! D17   D(7,9,10,11)           -0.0674         estimate D2E/DX2                !
 ! D18   D(7,9,10,20)         -179.9791         estimate D2E/DX2                !
 ! D19   D(12,9,10,11)         121.3974         estimate D2E/DX2                !
 ! D20   D(12,9,10,20)         -58.5142         estimate D2E/DX2                !
 ! D21   D(21,9,10,11)        -122.2004         estimate D2E/DX2                !
 ! D22   D(21,9,10,20)          57.8879         estimate D2E/DX2                !
 ! D23   D(7,9,12,13)         -172.5704         estimate D2E/DX2                !
 ! D24   D(7,9,12,22)          -52.5678         estimate D2E/DX2                !
 ! D25   D(7,9,12,23)           67.4597         estimate D2E/DX2                !
 ! D26   D(10,9,12,13)          65.5917         estimate D2E/DX2                !
 ! D27   D(10,9,12,22)        -174.4058         estimate D2E/DX2                !
 ! D28   D(10,9,12,23)         -54.3783         estimate D2E/DX2                !
 ! D29   D(21,9,12,13)         -56.454          estimate D2E/DX2                !
 ! D30   D(21,9,12,22)          63.5486         estimate D2E/DX2                !
 ! D31   D(21,9,12,23)        -176.4239         estimate D2E/DX2                !
 ! D32   D(9,12,13,14)        -177.8883         estimate D2E/DX2                !
 ! D33   D(9,12,13,24)         -57.8561         estimate D2E/DX2                !
 ! D34   D(9,12,13,25)          62.1191         estimate D2E/DX2                !
 ! D35   D(22,12,13,14)         60.9336         estimate D2E/DX2                !
 ! D36   D(22,12,13,24)       -179.0342         estimate D2E/DX2                !
 ! D37   D(22,12,13,25)        -59.0589         estimate D2E/DX2                !
 ! D38   D(23,12,13,14)        -56.7826         estimate D2E/DX2                !
 ! D39   D(23,12,13,24)         63.2496         estimate D2E/DX2                !
 ! D40   D(23,12,13,25)       -176.7751         estimate D2E/DX2                !
 ! D41   D(12,13,14,15)        179.9752         estimate D2E/DX2                !
 ! D42   D(12,13,14,26)        -59.9275         estimate D2E/DX2                !
 ! D43   D(12,13,14,27)         60.0175         estimate D2E/DX2                !
 ! D44   D(24,13,14,15)         58.503          estimate D2E/DX2                !
 ! D45   D(24,13,14,26)        178.6002         estimate D2E/DX2                !
 ! D46   D(24,13,14,27)        -61.4547         estimate D2E/DX2                !
 ! D47   D(25,13,14,15)        -58.5805         estimate D2E/DX2                !
 ! D48   D(25,13,14,26)         61.5168         estimate D2E/DX2                !
 ! D49   D(25,13,14,27)       -178.5381         estimate D2E/DX2                !
 ! D50   D(13,14,15,16)       -179.9921         estimate D2E/DX2                !
 ! D51   D(13,14,15,28)        -59.921          estimate D2E/DX2                !
 ! D52   D(13,14,15,29)         60.0476         estimate D2E/DX2                !
 ! D53   D(26,14,15,16)         58.3074         estimate D2E/DX2                !
 ! D54   D(26,14,15,28)        178.3785         estimate D2E/DX2                !
 ! D55   D(26,14,15,29)        -61.6529         estimate D2E/DX2                !
 ! D56   D(27,14,15,16)        -58.416          estimate D2E/DX2                !
 ! D57   D(27,14,15,28)         61.6551         estimate D2E/DX2                !
 ! D58   D(27,14,15,29)       -178.3763         estimate D2E/DX2                !
 ! D59   D(14,15,16,17)       -179.9634         estimate D2E/DX2                !
 ! D60   D(14,15,16,18)        -59.9524         estimate D2E/DX2                !
 ! D61   D(14,15,16,19)         60.043          estimate D2E/DX2                !
 ! D62   D(28,15,16,17)         58.9198         estimate D2E/DX2                !
 ! D63   D(28,15,16,18)        178.9308         estimate D2E/DX2                !
 ! D64   D(28,15,16,19)        -61.0737         estimate D2E/DX2                !
 ! D65   D(29,15,16,17)        -58.9785         estimate D2E/DX2                !
 ! D66   D(29,15,16,18)         61.0325         estimate D2E/DX2                !
 ! D67   D(29,15,16,19)       -178.972          estimate D2E/DX2                !
 ! D68   D(15,16,17,33)        179.9997         estimate D2E/DX2                !
 ! D69   D(15,16,17,34)        -59.9857         estimate D2E/DX2                !
 ! D70   D(15,16,17,35)         60.0686         estimate D2E/DX2                !
 ! D71   D(18,16,17,33)         59.9289         estimate D2E/DX2                !
 ! D72   D(18,16,17,34)        179.9435         estimate D2E/DX2                !
 ! D73   D(18,16,17,35)        -60.0022         estimate D2E/DX2                !
 ! D74   D(19,16,17,33)        -59.9598         estimate D2E/DX2                !
 ! D75   D(19,16,17,34)         60.0547         estimate D2E/DX2                !
 ! D76   D(19,16,17,35)       -179.891          estimate D2E/DX2                !
 ! D77   D(15,16,18,36)        179.9927         estimate D2E/DX2                !
 ! D78   D(15,16,18,37)        -59.9784         estimate D2E/DX2                !
 ! D79   D(15,16,18,38)         59.9924         estimate D2E/DX2                !
 ! D80   D(17,16,18,36)        -59.9617         estimate D2E/DX2                !
 ! D81   D(17,16,18,37)         60.0671         estimate D2E/DX2                !
 ! D82   D(17,16,18,38)       -179.962          estimate D2E/DX2                !
 ! D83   D(19,16,18,36)         59.9387         estimate D2E/DX2                !
 ! D84   D(19,16,18,37)        179.9676         estimate D2E/DX2                !
 ! D85   D(19,16,18,38)        -60.0616         estimate D2E/DX2                !
 ! D86   D(15,16,19,30)        179.9827         estimate D2E/DX2                !
 ! D87   D(15,16,19,31)        -59.9517         estimate D2E/DX2                !
 ! D88   D(15,16,19,32)         59.9677         estimate D2E/DX2                !
 ! D89   D(17,16,19,30)         59.953          estimate D2E/DX2                !
 ! D90   D(17,16,19,31)       -179.9813         estimate D2E/DX2                !
 ! D91   D(17,16,19,32)        -60.0619         estimate D2E/DX2                !
 ! D92   D(18,16,19,30)        -59.9489         estimate D2E/DX2                !
 ! D93   D(18,16,19,31)         60.1168         estimate D2E/DX2                !
 ! D94   D(18,16,19,32)       -179.9639         estimate D2E/DX2                !
 --------------------------------------------------------------------------------
 Trust Radius=3.00D-01 FncErr=1.00D-07 GrdErr=1.00D-06 EigMax=2.50D+02 EigMin=1.00D-04
 Number of steps in this run=    210 maximum allowed number of steps=    228.
 GradGradGradGradGradGradGradGradGradGradGradGradGradGradGradGradGradGrad

 Leave Link  103 at Sun May 31 21:38:11 2026, MaxMem=    67108864 cpu:               0.2 elap:               0.0
 (Enter /software/local/apps/gaussian-16.0/g16/l202.exe)
                          Input orientation:                          
 ---------------------------------------------------------------------
 Center     Atomic      Atomic             Coordinates (Angstroms)
 Number     Number       Type             X           Y           Z
 ---------------------------------------------------------------------
      1          6           0       20.042000    3.684000    7.511000
      2          1           0       21.002000    3.315000    7.871000
      3          1           0       19.479000    2.863000    7.069000
      4          1           0       19.479000    4.104000    8.345000
      5          6           0       20.274000    4.762000    6.462000
      6          8           0       19.459000    5.673000    6.332000
      7          7           0       21.362000    4.712000    5.690000
      8          1           0       22.007000    3.947000    5.829000
      9          6           0       21.611000    5.728000    4.679000
     10          6           0       22.926000    5.413000    3.952000
     11          8           0       23.598000    4.426000    4.253000
     12          6           0       21.608000    7.103000    5.352000
     13          6           0       21.681000    8.266000    4.357000
     14          6           0       21.731000    9.655000    5.005000
     15          6           0       21.805000   10.833000    4.024000
     16          7           0       21.851000   12.142000    4.698000
     17          6           0       21.922000   13.247000    3.656000
     18          6           0       20.600000   12.323000    5.543000
     19          6           0       23.079000   12.210000    5.592000
     20          8           0       23.346000    6.249000    2.960000
     21          1           0       20.758000    5.785000    4.002000
     22          1           0       20.692000    7.224000    5.930000
     23          1           0       22.469000    7.185000    6.015000
     24          1           0       22.579000    8.168000    3.748000
     25          1           0       20.802000    8.249000    3.712000
     26          1           0       20.836000    9.808000    5.607000
     27          1           0       22.613000    9.727000    5.642000
     28          1           0       22.703000   10.743000    3.414000
     29          1           0       20.926000   10.824000    3.379000
     30          1           0       23.113000   13.178000    6.090000
     31          1           0       23.029000   11.418000    6.339000
     32          1           0       23.976000   12.081000    4.987000
     33          1           0       21.956000   14.215000    4.155000
     34          1           0       22.819000   13.118000    3.051000
     35          1           0       21.041000   13.200000    3.016000
     36          1           0       20.635000   13.291000    6.041000
     37          1           0       19.719000   12.275000    4.903000
     38          1           0       20.549000   11.531000    6.291000
 ---------------------------------------------------------------------
                    Distance matrix (angstroms):
                    1          2          3          4          5
     1  C    0.000000
     2  H    1.089661   0.000000
     3  H    1.089208   1.779617   0.000000
     4  H    1.090378   1.779530   1.779960   0.000000
     5  C    1.521943   2.146875   2.146317   2.147249   0.000000
     6  O    2.384544   3.210846   2.905111   2.552319   1.229246
     7  N    2.472898   2.614951   2.977605   3.311250   1.335001
     8  H    2.599907   2.362036   3.017191   3.570111   2.016979
     9  C    3.828828   4.047507   4.297179   4.541184   2.428953
    10  C    4.896262   4.843753   5.300943   5.735306   3.709044
    11  O    4.879576   4.589495   5.228670   5.815007   4.005191
    12  C    4.336265   4.589285   5.045625   4.741803   2.914093
    13  C    5.799031   6.109144   6.433985   6.170510   4.323042
    14  C    6.692204   6.995784   7.447339   6.858623   5.309157
    15  C    8.147118   8.483192   8.843257   8.328311   6.718991
    16  N    9.095230   9.418315   9.866502   9.139827   7.750034
    17  C   10.480763  10.828539  11.200191  10.561696   9.087616
    18  C    8.877878   9.312639   9.647638   8.755559   7.623618
    19  C    9.251951   9.414287  10.124620   9.286886   8.006099
    20  O    6.181201   6.182282   6.580469   6.967994   4.890026
    21  H    4.152100   4.596694   4.424976   4.829415   2.707838
    22  H    3.931114   4.375370   4.667656   4.127711   2.553271
    23  H    4.515013   4.535827   5.360103   4.884830   3.299813
    24  H    6.379874   6.560310   6.984416   6.874482   4.927439
    25  H    5.987422   6.456132   6.482960   6.355788   4.472187
    26  H    6.462123   6.878394   7.225781   6.470990   5.148688
    27  H    6.827961   6.976927   7.679374   6.981855   5.549283
    28  H    8.584626   8.827992   9.265398   8.876106   7.138817
    29  H    8.296655   8.750367   8.893111   8.480175   6.832118
    30  H   10.079004  10.242414  10.980147  10.031374   8.889733
    31  H    8.373202   8.492018   9.291040   8.373836   7.204685
    32  H    9.610231   9.695612  10.465623   9.753548   8.333558
    33  H   11.217312  11.555465  11.978933  11.221584   9.874745
    34  H   10.798319  11.073965  11.509342  10.974253   9.377349
    35  H   10.571532  11.012982  11.212503  10.657171   9.146751
    36  H    9.736889  10.149097  10.542120   9.541788   8.547011
    37  H    8.983945   9.525582   9.660999   8.869623   7.693093
    38  H    7.957440   8.378799   8.768375   7.779727   6.776742
                    6          7          8          9         10
     6  O    0.000000
     7  N    2.226453   0.000000
     8  H    3.118395   1.010233   0.000000
     9  C    2.714137   1.454778   2.156682   0.000000
    10  C    4.213323   2.440930   2.552811   1.535246   0.000000
    11  O    4.796725   2.673287   2.290087   2.413472   1.231403
    12  C    2.761069   2.427270   3.216686   1.530870   2.559927
    13  C    3.944814   3.809142   4.574584   2.559302   3.139054
    14  C    4.772760   5.003862   5.773770   3.942335   4.531159
    15  C    6.120145   6.359123   7.121504   5.150503   5.535181
    16  N    7.087989   7.511863   8.274148   6.418517   6.855041
    17  C    8.401953   8.791870   9.550872   7.594644   7.903619
    18  C    6.793151   7.650462   8.498166   6.727752   7.462550
    19  C    7.508953   7.692704   8.335618   6.708570   6.993727
    20  O    5.177927   3.708305   3.914497   2.497324   1.363584
    21  H    2.669990   2.089375   2.876834   1.090499   2.200252
    22  H    2.021755   2.610870   3.532443   2.155824   3.490410
    23  H    3.383302   2.728883   3.276078   2.154973   2.757681
    24  H    4.757781   4.146853   4.740737   2.785208   2.784250
    25  H    3.912010   4.091021   4.943776   2.818690   3.551320
    26  H    4.418142   5.123747   5.980957   4.255374   5.140345
    27  H    5.182541   5.168900   5.814689   4.233601   4.643777
    28  H    6.689033   6.584179   7.245844   5.286106   5.361723
    29  H    6.115971   6.548844   7.379986   5.303625   5.797176
    30  H    8.350767   8.654430   9.300684   7.729775   8.056130
    31  H    6.763873   6.940499   7.557806   6.094458   6.462848
    32  H    7.954544   7.850437   8.411176   6.785919   6.829052
    33  H    9.161883   9.644484  10.403687   8.510157   8.857613
    34  H    8.802419   8.930174   9.616853   7.663012   7.758239
    35  H    8.375817   8.905024   9.719266   7.676018   8.066393
    36  H    7.713727   8.616900   9.446569   7.746392   8.466138
    37  H    6.759885   7.779318   8.686081   6.818581   7.633891
    38  H    5.958687   6.893543   7.736683   6.115652   6.967853
                   11         12         13         14         15
    11  O    0.000000
    12  C    3.512012   0.000000
    13  C    4.293170   1.532293   0.000000
    14  C    5.603002   2.578419   1.533534   0.000000
    15  C    6.657097   3.964252   2.591477   1.534771   0.000000
    16  N    7.923805   5.087070   3.894683   2.508748   1.473049
    17  C    8.998635   6.381516   5.035856   3.841711   2.444690
    18  C    8.544865   5.319863   4.362844   2.947343   2.445299
    19  C    7.915361   5.320046   4.362885   2.947829   2.444960
    20  O    2.249151   3.077600   2.965151   4.288483   4.951750
    21  H    3.158399   2.069329   2.670827   4.114564   5.155482
    22  H    4.368749   1.089854   2.130308   2.800876   4.230424
    23  H    3.462855   1.089777   2.130368   2.768690   4.208667
    24  H    3.911004   2.156359   1.089444   2.123752   2.788813
    25  H    4.767140   2.156978   1.090392   2.124082   2.789338
    26  H    6.199023   2.824541   2.157380   1.089421   2.120254
    27  H    5.567778   2.824801   2.157399   1.090356   2.119911
    28  H    6.435016   4.266670   2.840645   2.158659   1.089314
    29  H    6.988409   4.266579   2.840752   2.158347   1.090297
    30  H    8.955853   6.302007   5.402005   3.936836   3.387956
    31  H    7.318690   4.648939   3.959865   2.563694   2.683212
    32  H    7.699394   5.524593   4.496460   3.305424   2.682930
    33  H    9.926242   7.220419   5.958778   4.643999   3.387903
    34  H    8.809229   6.552965   5.151950   4.122406   2.682564
    35  H    9.222337   6.553762   5.152886   4.123014   2.683738
    36  H    9.516540   6.301809   5.401907   3.936370   3.388060
    37  H    8.779291   5.524446   4.496626   3.304988   2.683915
    38  H    7.995678   4.648697   3.960051   2.563259   2.684032
                   16         17         18         19         20
    16  N    0.000000
    17  C    1.520470   0.000000
    18  C    1.520456   2.482384   0.000000
    19  C    1.520475   2.482361   2.482058   0.000000
    20  O    6.323221   7.175249   7.148838   6.521674   0.000000
    21  H    6.487720   7.560162   6.719010   7.013969   2.828216
    22  H    5.200753   6.554426   5.114493   5.538250   4.100639
    23  H    5.166068   6.527782   5.487713   5.079533   3.313344
    24  H    4.150320   5.122143   4.939888   4.470805   2.211740
    25  H    4.150668   5.122259   4.471112   4.940511   3.322264
    26  H    2.702603   4.100307   2.526859   3.286469   5.096390
    27  H    2.702592   4.100253   3.286516   2.526845   4.452740
    28  H    2.081288   2.634111   3.384029   2.652763   4.562412
    29  H    2.081468   2.634326   2.652579   3.384342   5.192551
    30  H    2.145601   2.710645   2.710240   1.089121   7.606723
    31  H    2.145866   3.430624   2.711583   1.089850   6.183582
    32  H    2.145429   2.711094   3.430026   1.089621   6.206275
    33  H    2.145508   1.089578   2.710156   2.710373   8.174184
    34  H    2.145276   1.089621   3.430168   2.710857   6.889787
    35  H    2.145830   1.089940   2.710966   3.430644   7.323426
    36  H    2.145345   2.710448   1.089152   2.709852   8.150573
    37  H    2.145959   2.711642   1.089984   3.430531   7.296784
    38  H    2.146200   3.431182   1.090582   2.711188   6.842389
                   21         22         23         24         25
    21  H    0.000000
    22  H    2.406712   0.000000
    23  H    2.989931   1.779459   0.000000
    24  H    3.009858   3.035297   2.473394   0.000000
    25  H    2.481397   2.445864   3.035588   1.779209   0.000000
    26  H    4.332048   2.608088   3.116614   3.030434   2.454111
    27  H    4.655104   3.168311   2.573253   2.453339   3.031354
    28  H    5.358221   4.770507   4.413538   2.599530   3.150022
    29  H    5.080145   4.418411   4.750965   3.150064   2.599402
    30  H    8.035062   6.429382   6.027969   5.556098   5.940593
    31  H    6.507665   4.818556   4.282157   4.180703   4.680087
    32  H    7.139003   5.938380   5.224811   4.335701   5.136548
    33  H    8.516074   7.322732   7.289970   6.092617   6.092710
    34  H    7.676263   6.895796   6.641407   5.004589   5.311532
    35  H    7.485620   6.657760   6.871201   5.312466   5.005391
    36  H    7.778990   6.068283   6.375537   5.939875   5.556428
    37  H    6.634110   5.245385   5.891277   5.136251   4.335902
    38  H    6.188677   4.324467   4.759232   4.679478   4.181719
                   26         27         28         29         30
    26  H    0.000000
    27  H    1.779189   0.000000
    28  H    3.028063   2.450375   0.000000
    29  H    2.450375   3.028291   1.779189   0.000000
    30  H    4.095719   3.515694   3.641195   4.204023   0.000000
    31  H    2.817299   1.875725   3.019524   3.679272   1.779510
    32  H    3.925625   2.797876   2.425923   3.669906   1.778985
    33  H    4.773296   4.773360   3.627930   3.627941   2.481581
    34  H    4.628339   4.272540   2.405379   2.992235   3.053777
    35  H    4.273286   4.629124   2.992908   2.406319   3.707175
    36  H    3.515686   4.095581   4.203577   3.641018   2.481059
    37  H    2.798105   3.926024   3.669932   2.425866   3.707238
    38  H    1.875888   2.817040   3.679373   3.020219   3.054031
                   31         32         33         34         35
    31  H    0.000000
    32  H    1.778843   0.000000
    33  H    3.707343   3.053945   0.000000
    34  H    3.707431   2.482361   1.779605   0.000000
    35  H    4.262628   3.708265   1.778980   1.780234   0.000000
    36  H    3.054205   3.706386   2.481091   3.706735   3.053480
    37  H    3.708456   4.262246   3.054058   3.708174   2.482756
    38  H    2.483037   3.707728   3.707560   4.262519   3.708537
                   36         37         38
    36  H    0.000000
    37  H    1.779426   0.000000
    38  H    1.779746   1.780163   0.000000
 Stoichiometry    C11H22N2O3
 Framework group  C1[X(C11H22N2O3)]
 Deg. of freedom   108
 Full point group                 C1      NOp   1
 Largest Abelian subgroup         C1      NOp   1
 Largest concise Abelian subgroup C1      NOp   1
                         Standard orientation:                         
 ---------------------------------------------------------------------
 Center     Atomic      Atomic             Coordinates (Angstroms)
 Number     Number       Type             X           Y           Z
 ---------------------------------------------------------------------
      1          6           0        4.774518   -2.209554    0.464535
      2          1           0        5.114946   -1.709574    1.370895
      3          1           0        5.568277   -2.191630   -0.281119
      4          1           0        4.515695   -3.243193    0.695888
      5          6           0        3.549553   -1.490392   -0.081887
      6          8           0        2.693944   -2.123073   -0.697268
      7          7           0        3.411401   -0.176708    0.111442
      8          1           0        4.136932    0.306009    0.622480
      9          6           0        2.251549    0.538067   -0.398675
     10          6           0        2.364026    2.023671   -0.028124
     11          8           0        3.328801    2.448722    0.608189
     12          6           0        0.984933   -0.125848    0.147644
     13          6           0       -0.304577    0.429746   -0.465872
     14          6           0       -1.592446   -0.181185    0.099708
     15          6           0       -2.894947    0.363384   -0.502333
     16          7           0       -4.099956   -0.256191    0.075554
     17          6           0       -5.338404    0.338527   -0.575896
     18          6           0       -4.068904   -1.756067   -0.171823
     19          6           0       -4.139049    0.008508    1.572300
     20          8           0        1.371564    2.875159   -0.414579
     21          1           0        2.168133    0.376755   -1.473946
     22          1           0        1.013530   -1.194695   -0.063379
     23          1           0        0.928533    0.030055    1.224736
     24          1           0       -0.358735    1.503304   -0.288590
     25          1           0       -0.308572    0.239015   -1.539446
     26          1           0       -1.593796   -1.256010   -0.078021
     27          1           0       -1.644095    0.008959    1.172114
     28          1           0       -2.957144    1.436432   -0.325404
     29          1           0       -2.906845    0.171463   -1.575539
     30          1           0       -5.030203   -0.449393    1.999331
     31          1           0       -3.251447   -0.417219    2.039948
     32          1           0       -4.161966    1.083239    1.750352
     33          1           0       -6.229423   -0.120053   -0.148145
     34          1           0       -5.361321    1.413258   -0.397845
     35          1           0       -5.311934    0.147422   -1.648626
     36          1           0       -4.960135   -2.213249    0.255899
     37          1           0       -4.041446   -1.947023   -1.244598
     38          1           0       -3.181091   -2.183191    0.295854
 ---------------------------------------------------------------------
 Rotational constants (GHZ):           0.8216412           0.1960402           0.1677517
 Leave Link  202 at Sun May 31 21:38:11 2026, MaxMem=    67108864 cpu:               0.1 elap:               0.0
 (Enter /software/local/apps/gaussian-16.0/g16/l301.exe)
 Standard basis: 6-31G(d) (6D, 7F)
 Ernie: Thresh=  0.10000D-02 Tol=  0.10000D-05 Strict=F.
 There are   284 symmetry adapted cartesian basis functions of A   symmetry.
 There are   284 symmetry adapted basis functions of A   symmetry.
   284 basis functions,   536 primitive gaussians,   284 cartesian basis functions
    63 alpha electrons       63 beta electrons
       nuclear repulsion energy      1148.1162900818 Hartrees.
 IExCor=  402 DFT=T Ex+Corr=B3LYP ExCW=0 ScaHFX=  0.200000
 ScaDFX=  0.800000  0.720000  1.000000  0.810000 ScalE2=  1.000000  1.000000
 IRadAn=      5 IRanWt=     -1 IRanGd=            0 ICorTp=0 IEmpDi=  4
 NAtoms=   38 NActive=   38 NUniq=   38 SFac= 1.00D+00 NAtFMM=   60 NAOKFM=F Big=F
 Integral buffers will be    131072 words long.
 Raffenetti 2 integral format.
 Two-electron integral symmetry is turned on.
 Leave Link  301 at Sun May 31 21:38:11 2026, MaxMem=    67108864 cpu:               0.8 elap:               0.1
 (Enter /software/local/apps/gaussian-16.0/g16/l302.exe)
 NPDir=0 NMtPBC=     1 NCelOv=     1 NCel=       1 NClECP=     1 NCelD=      1
         NCelK=      1 NCelE2=     1 NClLst=     1 CellRange=     0.0.
 One-electron integrals computed using PRISM.
 One-electron integral symmetry used in STVInt
 NBasis=   284 RedAO= T EigKep=  1.87D-03  NBF=   284
 NBsUse=   284 1.00D-06 EigRej= -1.00D+00 NBFU=   284
 Precomputing XC quadrature grid using
 IXCGrd= 4 IRadAn=           5 IRanWt=          -1 IRanGd=           0 AccXCQ= 0.00D+00.
 Generated NRdTot=       0 NPtTot=           0 NUsed=           0 NTot=          32
 NSgBfM=   282   282   282   282   282 MxSgAt=    38 MxSgA2=    38.
 Leave Link  302 at Sun May 31 21:38:11 2026, MaxMem=    67108864 cpu:               5.6 elap:               0.4
 (Enter /software/local/apps/gaussian-16.0/g16/l303.exe)
 DipDrv:  MaxL=1.
 Leave Link  303 at Sun May 31 21:38:11 2026, MaxMem=    67108864 cpu:               0.5 elap:               0.1
 (Enter /software/local/apps/gaussian-16.0/g16/l401.exe)
 ExpMin= 1.61D-01 ExpMax= 5.48D+03 ExpMxC= 8.25D+02 IAcc=3 IRadAn=         5 AccDes= 0.00D+00
 Harris functional with IExCor=  402 and IRadAn=       5 diagonalized for initial guess.
 HarFok:  IExCor=  402 AccDes= 0.00D+00 IRadAn=         5 IDoV= 1 UseB2=F ITyADJ=14
 ICtDFT=  3500011 ScaDFX=  1.000000  1.000000  1.000000  1.000000
 FoFCou: FMM=F IPFlag=           0 FMFlag=      100000 FMFlg1=           0
         NFxFlg=           0 DoJE=T BraDBF=F KetDBF=T FulRan=T
         wScrn=  0.000000 ICntrl=       500 IOpCl=  0 I1Cent=   200000004 NGrid=           0
         NMat0=    1 NMatS0=      1 NMatT0=    0 NMatD0=    1 NMtDS0=    0 NMtDT0=    0
 Petite list used in FoFCou.
 Harris En= -767.659151272490    
 JPrj=0 DoOrth=F DoCkMO=F.
 Leave Link  401 at Sun May 31 21:38:12 2026, MaxMem=    67108864 cpu:              17.2 elap:               1.1
 (Enter /software/local/apps/gaussian-16.0/g16/l502.exe)
 Integral symmetry usage will be decided dynamically.
 Closed shell SCF:
 Using DIIS extrapolation, IDIIS=  1040.
 NGot=    67108864 LenX=    66938694 LenY=    66857597
 Requested convergence on RMS density matrix=1.00D-08 within 128 cycles.
 Requested convergence on MAX density matrix=1.00D-06.
 Requested convergence on             energy=1.00D-06.
 No special actions if energy rises.
 Fock matrices will be formed incrementally for  20 cycles.
 Integral accuracy reduced to 1.0D-05 until final iterations.

 Cycle   1  Pass 0  IDiag  1:
 FoFJK:  IHMeth= 1 ICntrl=       0 DoSepK=F KAlg= 0 I1Cent=           0 FoldK=F
 IRaf= 770000000 NMat=       1 IRICut=       1 DoRegI=T DoRafI=F ISym2E= 0 IDoP0=0 IntGTp=1.
 FoFCou: FMM=F IPFlag=           0 FMFlag=      100000 FMFlg1=           0
         NFxFlg=           0 DoJE=F BraDBF=F KetDBF=F FulRan=T
         wScrn=  0.000000 ICntrl=         0 IOpCl=  0 I1Cent=           0 NGrid=           0
         NMat0=    1 NMatS0=      1 NMatT0=    0 NMatD0=    1 NMtDS0=    0 NMtDT0=    0
 Symmetry not used in FoFCou.
 E= -766.936431081926    
 DIIS: error= 3.47D-02 at cycle   1 NSaved=   1.
 NSaved= 1 IEnMin= 1 EnMin= -766.936431081926     IErMin= 1 ErrMin= 3.47D-02
 ErrMax= 3.47D-02  0.00D+00 EMaxC= 1.00D-01 BMatC= 6.22D-01 BMatP= 6.22D-01
 IDIUse=3 WtCom= 6.53D-01 WtEn= 3.47D-01
 Coeff-Com:  0.100D+01
 Coeff-En:   0.100D+01
 Coeff:      0.100D+01
 Gap=     0.296 Goal=   None    Shift=    0.000
 GapD=    0.296 DampG=1.000 DampE=0.500 DampFc=0.5000 IDamp=-1.
 Damping current iteration by 5.00D-01
 RMSDP=4.37D-02 MaxDP=4.19D+00              OVMax= 9.91D-01

 Cycle   2  Pass 0  IDiag  1:
 RMSU=  2.18D-02    CP:  1.01D+00
 E= -765.872635186756     Delta-E=        1.063795895170 Rises=F Damp=T
 DIIS: error= 4.49D-02 at cycle   2 NSaved=   2.
 NSaved= 2 IEnMin= 1 EnMin= -766.936431081926     IErMin= 1 ErrMin= 3.47D-02
 ErrMax= 4.49D-02  0.00D+00 EMaxC= 1.00D-01 BMatC= 4.08D-01 BMatP= 6.22D-01
 IDIUse=3 WtCom= 5.51D-01 WtEn= 4.49D-01
 Coeff-Com:  0.427D+00 0.573D+00
 Coeff-En:   0.787D+00 0.213D+00
 Coeff:      0.589D+00 0.411D+00
 Gap=     0.395 Goal=   None    Shift=    0.000
 RMSDP=2.18D-02 MaxDP=2.06D+00 DE= 1.06D+00 OVMax= 6.28D-01

 Cycle   3  Pass 0  IDiag  1:
 RMSU=  3.92D-03    CP:  9.73D-01  1.88D-02
 E= -767.121627914903     Delta-E=       -1.248992728147 Rises=F Damp=F
 DIIS: error= 3.17D-02 at cycle   3 NSaved=   3.
 NSaved= 3 IEnMin= 3 EnMin= -767.121627914903     IErMin= 3 ErrMin= 3.17D-02
 ErrMax= 3.17D-02  0.00D+00 EMaxC= 1.00D-01 BMatC= 3.81D-01 BMatP= 4.08D-01
 IDIUse=3 WtCom= 6.83D-01 WtEn= 3.17D-01
 EnCoef did     2 forward-backward iterations
 Coeff-Com:  0.283D+00 0.359D+00 0.357D+00
 Coeff-En:   0.316D+00 0.101D+00 0.583D+00
 Coeff:      0.294D+00 0.277D+00 0.429D+00
 Gap=     0.301 Goal=   None    Shift=    0.000
 RMSDP=2.51D-03 MaxDP=8.38D-02 DE=-1.25D+00 OVMax= 1.81D-01

 Cycle   4  Pass 0  IDiag  1:
 RMSU=  1.59D-03    CP:  9.83D-01  1.53D-02  5.10D-01
 E= -767.463437557440     Delta-E=       -0.341809642536 Rises=F Damp=F
 DIIS: error= 8.71D-03 at cycle   4 NSaved=   4.
 NSaved= 4 IEnMin= 4 EnMin= -767.463437557440     IErMin= 4 ErrMin= 8.71D-03
 ErrMax= 8.71D-03  0.00D+00 EMaxC= 1.00D-01 BMatC= 3.59D-02 BMatP= 3.81D-01
 IDIUse=3 WtCom= 9.13D-01 WtEn= 8.71D-02
 Coeff-Com:  0.876D-01 0.201D+00 0.184D+00 0.528D+00
 Coeff-En:   0.000D+00 0.000D+00 0.000D+00 0.100D+01
 Coeff:      0.800D-01 0.183D+00 0.168D+00 0.569D+00
 Gap=     0.188 Goal=   None    Shift=    0.000
 RMSDP=1.02D-03 MaxDP=4.91D-02 DE=-3.42D-01 OVMax= 1.17D-01

 Cycle   5  Pass 0  IDiag  1:
 RMSU=  8.39D-04    CP:  9.85D-01  1.83D-02  5.87D-01  6.98D-01
 E= -767.458598352874     Delta-E=        0.004839204566 Rises=F Damp=F
 DIIS: error= 1.58D-02 at cycle   5 NSaved=   5.
 NSaved= 5 IEnMin= 4 EnMin= -767.463437557440     IErMin= 4 ErrMin= 8.71D-03
 ErrMax= 1.58D-02  0.00D+00 EMaxC= 1.00D-01 BMatC= 4.24D-02 BMatP= 3.59D-02
 IDIUse=2 WtCom= 0.00D+00 WtEn= 1.00D+00
 Coeff-En:   0.000D+00 0.000D+00 0.000D+00 0.542D+00 0.458D+00
 Coeff:      0.000D+00 0.000D+00 0.000D+00 0.542D+00 0.458D+00
 Gap=     0.033 Goal=   None    Shift=    0.000
 RMSDP=1.62D-02 MaxDP=1.42D+00 DE= 4.84D-03 OVMax= 9.28D-01

 Cycle   6  Pass 0  IDiag  1:
 RMSU=  1.45D-02    CP:  9.83D-01  3.49D-01  4.40D-01  8.19D-01  6.33D-01
 E= -766.334469278454     Delta-E=        1.124129074420 Rises=F Damp=F
 DIIS: error= 5.36D-02 at cycle   6 NSaved=   6.
 NSaved= 6 IEnMin= 4 EnMin= -767.463437557440     IErMin= 4 ErrMin= 8.71D-03
 ErrMax= 5.36D-02  0.00D+00 EMaxC= 1.00D-01 BMatC= 7.01D-01 BMatP= 3.59D-02
 IDIUse=2 WtCom= 0.00D+00 WtEn= 1.00D+00
 EnCoef did     4 forward-backward iterations
 Coeff-En:   0.000D+00 0.000D+00 0.000D+00 0.505D+00 0.476D+00 0.191D-01
 Coeff:      0.000D+00 0.000D+00 0.000D+00 0.505D+00 0.476D+00 0.191D-01
 Gap=    -0.009 Goal=   None    Shift=    0.000
 RMSDP=1.58D-02 MaxDP=1.38D+00 DE= 1.12D+00 OVMax= 8.85D-01

 Problem detected with inexpensive integrals.
 Switching to full accuracy and repeating last cycle.
 Cycle   7  Pass 1  IDiag  1:
 E= -766.334427797688     Delta-E=        0.000041480767 Rises=F Damp=F
 DIIS: error= 5.36D-02 at cycle   1 NSaved=   1.
 NSaved= 1 IEnMin= 1 EnMin= -766.334427797688     IErMin= 1 ErrMin= 5.36D-02
 ErrMax= 5.36D-02  0.00D+00 EMaxC= 1.00D-01 BMatC= 7.01D-01 BMatP= 7.01D-01
 IDIUse=3 WtCom= 4.64D-01 WtEn= 5.36D-01
 Coeff-Com:  0.100D+01
 Coeff-En:   0.100D+01
 Coeff:      0.100D+01
 Gap=    -0.819 Goal=   None    Shift=    0.000
 GapD=   -0.819 DampG=0.250 DampE=0.500 DampFc=0.2500 IDamp=-1.
 Damping current iteration by 2.50D-01
 RMSDP=2.15D-02 MaxDP=1.51D+00 DE= 4.15D-05 OVMax= 9.05D-01

 Cycle   8  Pass 1  IDiag  1:
 RMSU=  4.66D-03    CP:  8.96D-01
 E= -766.350347801118     Delta-E=       -0.015920003430 Rises=F Damp=T
 DIIS: error= 1.48D-02 at cycle   2 NSaved=   2.
 NSaved= 2 IEnMin= 2 EnMin= -766.350347801118     IErMin= 2 ErrMin= 1.48D-02
 ErrMax= 1.48D-02  0.00D+00 EMaxC= 1.00D-01 BMatC= 8.62D-02 BMatP= 7.01D-01
 IDIUse=3 WtCom= 8.52D-01 WtEn= 1.48D-01
 Coeff-Com:  0.518D-01 0.948D+00
 Coeff-En:   0.491D+00 0.509D+00
 Coeff:      0.117D+00 0.883D+00
 Gap=     0.005 Goal=   None    Shift=    0.000
 RMSDP=1.27D-02 MaxDP=1.00D+00 DE=-1.59D-02 OVMax= 7.86D-01

 Cycle   9  Pass 1  IDiag  1:
 RMSU=  9.47D-03    CP:  5.98D-01  1.79D+00
 E= -766.999806145137     Delta-E=       -0.649458344019 Rises=F Damp=F
 DIIS: error= 5.67D-02 at cycle   3 NSaved=   3.
 NSaved= 3 IEnMin= 3 EnMin= -766.999806145137     IErMin= 2 ErrMin= 1.48D-02
 ErrMax= 5.67D-02  0.00D+00 EMaxC= 1.00D-01 BMatC= 5.86D-01 BMatP= 8.62D-02
 IDIUse=2 WtCom= 0.00D+00 WtEn= 1.00D+00
 EnCoef did   100 forward-backward iterations
 Coeff-En:   0.329D+00 0.353D-02 0.667D+00
 Coeff:      0.329D+00 0.353D-02 0.667D+00
 Gap=     0.417 Goal=   None    Shift=    0.000
 RMSDP=4.65D-03 MaxDP=2.51D-01 DE=-6.49D-01 OVMax= 4.43D-01

 Cycle  10  Pass 1  IDiag  1:
 RMSU=  4.48D-03    CP:  5.99D-01  1.88D+00  8.73D-01
 E= -766.961922002292     Delta-E=        0.037884142845 Rises=F Damp=F
 DIIS: error= 4.73D-02 at cycle   4 NSaved=   4.
 NSaved= 4 IEnMin= 3 EnMin= -766.999806145137     IErMin= 2 ErrMin= 1.48D-02
 ErrMax= 4.73D-02  0.00D+00 EMaxC= 1.00D-01 BMatC= 6.26D-01 BMatP= 8.62D-02
 IDIUse=2 WtCom= 0.00D+00 WtEn= 1.00D+00
 EnCoef did     6 forward-backward iterations
 Coeff-En:   0.134D+00 0.000D+00 0.487D+00 0.379D+00
 Coeff:      0.134D+00 0.000D+00 0.487D+00 0.379D+00
 Gap=     0.220 Goal=   None    Shift=    0.000
 RMSDP=2.74D-03 MaxDP=1.00D-01 DE= 3.79D-02 OVMax= 2.49D-01

 Cycle  11  Pass 1  IDiag  1:
 RMSU=  1.20D-03    CP:  6.04D-01  1.75D+00  9.66D-01  5.04D-01
 E= -767.490659981355     Delta-E=       -0.528737979063 Rises=F Damp=F
 DIIS: error= 3.63D-03 at cycle   5 NSaved=   5.
 NSaved= 5 IEnMin= 5 EnMin= -767.490659981355     IErMin= 5 ErrMin= 3.63D-03
 ErrMax= 3.63D-03  0.00D+00 EMaxC= 1.00D-01 BMatC= 6.59D-03 BMatP= 8.62D-02
 IDIUse=3 WtCom= 9.64D-01 WtEn= 3.63D-02
 Coeff-Com:  0.390D-01-0.410D-01 0.128D+00 0.118D+00 0.755D+00
 Coeff-En:   0.000D+00 0.000D+00 0.000D+00 0.000D+00 0.100D+01
 Coeff:      0.376D-01-0.395D-01 0.124D+00 0.114D+00 0.764D+00
 Gap=     0.078 Goal=   None    Shift=    0.000
 RMSDP=5.99D-04 MaxDP=3.03D-02 DE=-5.29D-01 OVMax= 4.36D-02

 Cycle  12  Pass 1  IDiag  1:
 RMSU=  5.62D-04    CP:  6.05D-01  1.75D+00  9.62D-01  5.49D-01  1.00D+00
 E= -767.489683244296     Delta-E=        0.000976737059 Rises=F Damp=F
 DIIS: error= 5.14D-03 at cycle   6 NSaved=   6.
 NSaved= 6 IEnMin= 5 EnMin= -767.490659981355     IErMin= 5 ErrMin= 3.63D-03
 ErrMax= 5.14D-03  0.00D+00 EMaxC= 1.00D-01 BMatC= 8.60D-03 BMatP= 6.59D-03
 IDIUse=3 WtCom= 9.64D-01 WtEn= 3.63D-02
 Coeff-Com:  0.744D-03 0.338D-01 0.156D-01-0.880D-02 0.503D+00 0.456D+00
 Coeff-En:   0.000D+00 0.000D+00 0.000D+00 0.000D+00 0.534D+00 0.466D+00
 Coeff:      0.717D-03 0.326D-01 0.150D-01-0.848D-02 0.504D+00 0.456D+00
 Gap=     0.070 Goal=   None    Shift=    0.000
 RMSDP=3.43D-04 MaxDP=1.87D-02 DE= 9.77D-04 OVMax= 3.12D-02

 Cycle  13  Pass 1  IDiag  1:
 RMSU=  1.57D-04    CP:  6.06D-01  1.74D+00  9.66D-01  5.16D-01  1.12D+00
                    CP:  6.03D-01
 E= -767.496128139409     Delta-E=       -0.006444895113 Rises=F Damp=F
 DIIS: error= 1.14D-03 at cycle   7 NSaved=   7.
 NSaved= 7 IEnMin= 7 EnMin= -767.496128139409     IErMin= 7 ErrMin= 1.14D-03
 ErrMax= 1.14D-03  0.00D+00 EMaxC= 1.00D-01 BMatC= 2.61D-04 BMatP= 6.59D-03
 IDIUse=3 WtCom= 9.89D-01 WtEn= 1.14D-02
 Coeff-Com:  0.539D-03 0.158D-01-0.341D-02-0.429D-02 0.151D+00 0.185D+00
 Coeff-Com:  0.656D+00
 Coeff-En:   0.000D+00 0.000D+00 0.000D+00 0.000D+00 0.000D+00 0.000D+00
 Coeff-En:   0.100D+01
 Coeff:      0.533D-03 0.156D-01-0.337D-02-0.424D-02 0.149D+00 0.183D+00
 Coeff:      0.660D+00
 Gap=     0.073 Goal=   None    Shift=    0.000
 RMSDP=5.81D-05 MaxDP=1.87D-03 DE=-6.44D-03 OVMax= 3.62D-03

 Cycle  14  Pass 1  IDiag  1:
 RMSU=  4.33D-05    CP:  6.06D-01  1.74D+00  9.65D-01  5.20D-01  1.12D+00
                    CP:  6.35D-01  8.18D-01
 E= -767.496296811884     Delta-E=       -0.000168672475 Rises=F Damp=F
 DIIS: error= 3.49D-04 at cycle   8 NSaved=   8.
 NSaved= 8 IEnMin= 8 EnMin= -767.496296811884     IErMin= 8 ErrMin= 3.49D-04
 ErrMax= 3.49D-04  0.00D+00 EMaxC= 1.00D-01 BMatC= 6.76D-05 BMatP= 2.61D-04
 IDIUse=3 WtCom= 9.97D-01 WtEn= 3.49D-03
 Coeff-Com:  0.606D-03 0.248D-02-0.591D-02 0.216D-02 0.584D-02 0.301D-01
 Coeff-Com:  0.353D+00 0.611D+00
 Coeff-En:   0.000D+00 0.000D+00 0.000D+00 0.000D+00 0.000D+00 0.000D+00
 Coeff-En:   0.000D+00 0.100D+01
 Coeff:      0.604D-03 0.247D-02-0.589D-02 0.216D-02 0.582D-02 0.300D-01
 Coeff:      0.352D+00 0.613D+00
 Gap=     0.074 Goal=   None    Shift=    0.000
 RMSDP=2.87D-05 MaxDP=1.08D-03 DE=-1.69D-04 OVMax= 1.21D-03

 Cycle  15  Pass 1  IDiag  1:
 RMSU=  1.88D-05    CP:  6.06D-01  1.75D+00  9.65D-01  5.24D-01  1.12D+00
                    CP:  6.35D-01  8.66D-01  7.74D-01
 E= -767.496352933506     Delta-E=       -0.000056121622 Rises=F Damp=F
 DIIS: error= 1.12D-04 at cycle   9 NSaved=   9.
 NSaved= 9 IEnMin= 9 EnMin= -767.496352933506     IErMin= 9 ErrMin= 1.12D-04
 ErrMax= 1.12D-04  0.00D+00 EMaxC= 1.00D-01 BMatC= 3.45D-06 BMatP= 6.76D-05
 IDIUse=3 WtCom= 9.99D-01 WtEn= 1.12D-03
 Coeff-Com:  0.577D-03-0.333D-03-0.253D-02 0.154D-02-0.617D-02 0.588D-03
 Coeff-Com:  0.817D-01 0.220D+00 0.705D+00
 Coeff-En:   0.000D+00 0.000D+00 0.000D+00 0.000D+00 0.000D+00 0.000D+00
 Coeff-En:   0.000D+00 0.000D+00 0.100D+01
 Coeff:      0.576D-03-0.333D-03-0.253D-02 0.154D-02-0.616D-02 0.588D-03
 Coeff:      0.816D-01 0.219D+00 0.705D+00
 Gap=     0.074 Goal=   None    Shift=    0.000
 RMSDP=7.93D-06 MaxDP=2.37D-04 DE=-5.61D-05 OVMax= 5.19D-04

 Cycle  16  Pass 1  IDiag  1:
 RMSU=  6.02D-06    CP:  6.06D-01  1.75D+00  9.65D-01  5.25D-01  1.12D+00
                    CP:  6.38D-01  8.72D-01  8.28D-01  1.06D+00
 E= -767.496355530375     Delta-E=       -0.000002596869 Rises=F Damp=F
 DIIS: error= 2.25D-05 at cycle  10 NSaved=  10.
 NSaved=10 IEnMin=10 EnMin= -767.496355530375     IErMin=10 ErrMin= 2.25D-05
 ErrMax= 2.25D-05  0.00D+00 EMaxC= 1.00D-01 BMatC= 3.78D-07 BMatP= 3.45D-06
 IDIUse=1 WtCom= 1.00D+00 WtEn= 0.00D+00
 Coeff-Com:  0.287D-03-0.751D-03-0.689D-03 0.502D-03-0.369D-02-0.303D-02
 Coeff-Com: -0.296D-02 0.309D-01 0.352D+00 0.628D+00
 Coeff:      0.287D-03-0.751D-03-0.689D-03 0.502D-03-0.369D-02-0.303D-02
 Coeff:     -0.296D-02 0.309D-01 0.352D+00 0.628D+00
 Gap=     0.074 Goal=   None    Shift=    0.000
 RMSDP=3.32D-06 MaxDP=9.26D-05 DE=-2.60D-06 OVMax= 1.94D-04

 Cycle  17  Pass 1  IDiag  1:
 RMSU=  2.04D-06    CP:  6.06D-01  1.75D+00  9.65D-01  5.25D-01  1.12D+00
                    CP:  6.39D-01  8.73D-01  8.48D-01  1.12D+00  8.52D-01
 E= -767.496355821900     Delta-E=       -0.000000291525 Rises=F Damp=F
 DIIS: error= 1.36D-05 at cycle  11 NSaved=  11.
 NSaved=11 IEnMin=11 EnMin= -767.496355821900     IErMin=11 ErrMin= 1.36D-05
 ErrMax= 1.36D-05  0.00D+00 EMaxC= 1.00D-01 BMatC= 6.13D-08 BMatP= 3.78D-07
 IDIUse=1 WtCom= 1.00D+00 WtEn= 0.00D+00
 Coeff-Com:  0.817D-04-0.237D-03-0.761D-04-0.478D-04-0.706D-03-0.459D-03
 Coeff-Com: -0.232D-02-0.103D-02 0.718D-01 0.247D+00 0.686D+00
 Coeff:      0.817D-04-0.237D-03-0.761D-04-0.478D-04-0.706D-03-0.459D-03
 Coeff:     -0.232D-02-0.103D-02 0.718D-01 0.247D+00 0.686D+00
 Gap=     0.074 Goal=   None    Shift=    0.000
 RMSDP=1.10D-06 MaxDP=3.83D-05 DE=-2.92D-07 OVMax= 6.68D-05

 Cycle  18  Pass 1  IDiag  1:
 RMSU=  7.76D-07    CP:  6.06D-01  1.75D+00  9.65D-01  5.25D-01  1.12D+00
                    CP:  6.39D-01  8.74D-01  8.46D-01  1.14D+00  8.91D-01
                    CP:  8.15D-01
 E= -767.496355865012     Delta-E=       -0.000000043113 Rises=F Damp=F
 DIIS: error= 6.08D-06 at cycle  12 NSaved=  12.
 NSaved=12 IEnMin=12 EnMin= -767.496355865012     IErMin=12 ErrMin= 6.08D-06
 ErrMax= 6.08D-06  0.00D+00 EMaxC= 1.00D-01 BMatC= 1.57D-08 BMatP= 6.13D-08
 IDIUse=1 WtCom= 1.00D+00 WtEn= 0.00D+00
 Coeff-Com:  0.302D-04-0.136D-03 0.497D-04-0.813D-04-0.651D-04 0.376D-04
 Coeff-Com: -0.105D-02-0.383D-02 0.833D-02 0.884D-01 0.430D+00 0.478D+00
 Coeff:      0.302D-04-0.136D-03 0.497D-04-0.813D-04-0.651D-04 0.376D-04
 Coeff:     -0.105D-02-0.383D-02 0.833D-02 0.884D-01 0.430D+00 0.478D+00
 Gap=     0.074 Goal=   None    Shift=    0.000
 RMSDP=4.67D-07 MaxDP=2.24D-05 DE=-4.31D-08 OVMax= 3.85D-05

 Cycle  19  Pass 1  IDiag  1:
 RMSU=  2.84D-07    CP:  6.06D-01  1.75D+00  9.65D-01  5.25D-01  1.12D+00
                    CP:  6.39D-01  8.74D-01  8.47D-01  1.14D+00  8.97D-01
                    CP:  8.85D-01  6.14D-01
 E= -767.496355874154     Delta-E=       -0.000000009141 Rises=F Damp=F
 DIIS: error= 4.34D-06 at cycle  13 NSaved=  13.
 NSaved=13 IEnMin=13 EnMin= -767.496355874154     IErMin=13 ErrMin= 4.34D-06
 ErrMax= 4.34D-06  0.00D+00 EMaxC= 1.00D-01 BMatC= 4.15D-09 BMatP= 1.57D-08
 IDIUse=1 WtCom= 1.00D+00 WtEn= 0.00D+00
 Coeff-Com:  0.435D-05-0.264D-04 0.332D-04-0.396D-04 0.400D-04 0.180D-03
 Coeff-Com:  0.112D-02 0.660D-03-0.243D-02 0.639D-02 0.101D+00 0.282D+00
 Coeff-Com:  0.612D+00
 Coeff:      0.435D-05-0.264D-04 0.332D-04-0.396D-04 0.400D-04 0.180D-03
 Coeff:      0.112D-02 0.660D-03-0.243D-02 0.639D-02 0.101D+00 0.282D+00
 Coeff:      0.612D+00
 Gap=     0.074 Goal=   None    Shift=    0.000
 RMSDP=2.14D-07 MaxDP=8.33D-06 DE=-9.14D-09 OVMax= 1.86D-05

 Cycle  20  Pass 1  IDiag  1:
 RMSU=  9.60D-08    CP:  6.06D-01  1.75D+00  9.65D-01  5.25D-01  1.12D+00
                    CP:  6.39D-01  8.74D-01  8.47D-01  1.14D+00  9.00D-01
                    CP:  8.83D-01  7.23D-01  6.87D-01
 E= -767.496355877408     Delta-E=       -0.000000003254 Rises=F Damp=F
 DIIS: error= 8.20D-07 at cycle  14 NSaved=  14.
 NSaved=14 IEnMin=14 EnMin= -767.496355877408     IErMin=14 ErrMin= 8.20D-07
 ErrMax= 8.20D-07  0.00D+00 EMaxC= 1.00D-01 BMatC= 2.67D-10 BMatP= 4.15D-09
 IDIUse=1 WtCom= 1.00D+00 WtEn= 0.00D+00
 Coeff-Com: -0.819D-06-0.408D-05 0.126D-04-0.140D-04 0.101D-04 0.856D-04
 Coeff-Com:  0.778D-03 0.101D-02-0.583D-03-0.310D-02 0.117D-01 0.102D+00
 Coeff-Com:  0.316D+00 0.572D+00
 Coeff:     -0.819D-06-0.408D-05 0.126D-04-0.140D-04 0.101D-04 0.856D-04
 Coeff:      0.778D-03 0.101D-02-0.583D-03-0.310D-02 0.117D-01 0.102D+00
 Coeff:      0.316D+00 0.572D+00
 Gap=     0.074 Goal=   None    Shift=    0.000
 RMSDP=5.55D-08 MaxDP=1.77D-06 DE=-3.25D-09 OVMax= 3.50D-06

 Cycle  21  Pass 1  IDiag  1:
 RMSU=  3.18D-08    CP:  6.06D-01  1.75D+00  9.65D-01  5.25D-01  1.12D+00
                    CP:  6.39D-01  8.74D-01  8.47D-01  1.14D+00  9.00D-01
                    CP:  8.84D-01  7.28D-01  7.30D-01  7.41D-01
 E= -767.496355877628     Delta-E=       -0.000000000220 Rises=F Damp=F
 DIIS: error= 2.31D-07 at cycle  15 NSaved=  15.
 NSaved=15 IEnMin=15 EnMin= -767.496355877628     IErMin=15 ErrMin= 2.31D-07
 ErrMax= 2.31D-07  0.00D+00 EMaxC= 1.00D-01 BMatC= 1.66D-11 BMatP= 2.67D-10
 IDIUse=1 WtCom= 1.00D+00 WtEn= 0.00D+00
 Coeff-Com: -0.577D-06 0.115D-05 0.183D-05-0.139D-05-0.523D-05 0.894D-05
 Coeff-Com:  0.172D-03 0.370D-03 0.598D-03-0.838D-03-0.558D-02 0.738D-02
 Coeff-Com:  0.476D-01 0.235D+00 0.716D+00
 Coeff:     -0.577D-06 0.115D-05 0.183D-05-0.139D-05-0.523D-05 0.894D-05
 Coeff:      0.172D-03 0.370D-03 0.598D-03-0.838D-03-0.558D-02 0.738D-02
 Coeff:      0.476D-01 0.235D+00 0.716D+00
 Gap=     0.074 Goal=   None    Shift=    0.000
 RMSDP=1.94D-08 MaxDP=5.97D-07 DE=-2.20D-10 OVMax= 1.07D-06

 Cycle  22  Pass 1  IDiag  1:
 RMSU=  1.09D-08    CP:  6.06D-01  1.75D+00  9.65D-01  5.25D-01  1.12D+00
                    CP:  6.39D-01  8.74D-01  8.47D-01  1.14D+00  9.00D-01
                    CP:  8.83D-01  7.29D-01  7.29D-01  7.97D-01  8.83D-01
 E= -767.496355877633     Delta-E=       -0.000000000005 Rises=F Damp=F
 DIIS: error= 4.85D-08 at cycle  16 NSaved=  16.
 NSaved=16 IEnMin=16 EnMin= -767.496355877633     IErMin=16 ErrMin= 4.85D-08
 ErrMax= 4.85D-08  0.00D+00 EMaxC= 1.00D-01 BMatC= 1.10D-12 BMatP= 1.66D-11
 IDIUse=1 WtCom= 1.00D+00 WtEn= 0.00D+00
 Coeff-Com: -0.255D-06 0.602D-06 0.237D-06-0.614D-07-0.329D-05-0.264D-05
 Coeff-Com:  0.136D-04 0.772D-04 0.333D-03 0.926D-04-0.227D-02-0.220D-02
 Coeff-Com:  0.192D-02 0.723D-01 0.343D+00 0.587D+00
 Coeff:     -0.255D-06 0.602D-06 0.237D-06-0.614D-07-0.329D-05-0.264D-05
 Coeff:      0.136D-04 0.772D-04 0.333D-03 0.926D-04-0.227D-02-0.220D-02
 Coeff:      0.192D-02 0.723D-01 0.343D+00 0.587D+00
 Gap=     0.074 Goal=   None    Shift=    0.000
 RMSDP=5.25D-09 MaxDP=1.84D-07 DE=-5.46D-12 OVMax= 3.40D-07

 SCF Done:  E(RB3LYP) =  -767.496355878     A.U. after   22 cycles
            NFock= 22  Conv=0.52D-08     -V/T= 2.0091
 KE= 7.605753499779D+02 PE=-4.084751484253D+03 EE= 1.408563488316D+03
 Leave Link  502 at Sun May 31 21:38:45 2026, MaxMem=    67108864 cpu:             513.7 elap:              32.4
 (Enter /software/local/apps/gaussian-16.0/g16/l601.exe)
 Copying SCF densities to generalized density rwf, IOpCl= 0 IROHF=0.

 **********************************************************************

            Population analysis using the SCF Density.

 **********************************************************************

 Orbital symmetries:
       Occupied  (A) (A) (A) (A) (A) (A) (A) (A) (A) (A) (A) (A)
                 (A) (A) (A) (A) (A) (A) (A) (A) (A) (A) (A) (A)
                 (A) (A) (A) (A) (A) (A) (A) (A) (A) (A) (A) (A)
                 (A) (A) (A) (A) (A) (A) (A) (A) (A) (A) (A) (A)
                 (A) (A) (A) (A) (A) (A) (A) (A) (A) (A) (A) (A)
                 (A) (A) (A)
       Virtual   (A) (A) (A) (A) (A) (A) (A) (A) (A) (A) (A) (A)
                 (A) (A) (A) (A) (A) (A) (A) (A) (A) (A) (A) (A)
                 (A) (A) (A) (A) (A) (A) (A) (A) (A) (A) (A) (A)
                 (A) (A) (A) (A) (A) (A) (A) (A) (A) (A) (A) (A)
                 (A) (A) (A) (A) (A) (A) (A) (A) (A) (A) (A) (A)
                 (A) (A) (A) (A) (A) (A) (A) (A) (A) (A) (A) (A)
                 (A) (A) (A) (A) (A) (A) (A) (A) (A) (A) (A) (A)
                 (A) (A) (A) (A) (A) (A) (A) (A) (A) (A) (A) (A)
                 (A) (A) (A) (A) (A) (A) (A) (A) (A) (A) (A) (A)
                 (A) (A) (A) (A) (A) (A) (A) (A) (A) (A) (A) (A)
                 (A) (A) (A) (A) (A) (A) (A) (A) (A) (A) (A) (A)
                 (A) (A) (A) (A) (A) (A) (A) (A) (A) (A) (A) (A)
                 (A) (A) (A) (A) (A) (A) (A) (A) (A) (A) (A) (A)
                 (A) (A) (A) (A) (A) (A) (A) (A) (A) (A) (A) (A)
                 (A) (A) (A) (A) (A) (A) (A) (A) (A) (A) (A) (A)
                 (A) (A) (A) (A) (A) (A) (A) (A) (A) (A) (A) (A)
                 (A) (A) (A) (A) (A) (A) (A) (A) (A) (A) (A) (A)
                 (A) (A) (A) (A) (A) (A) (A) (A) (A) (A) (A) (A)
                 (A) (A) (A) (A) (A)
 The electronic state is 1-A.
 Alpha  occ. eigenvalues --  -19.05026 -18.98979 -18.96119 -14.54945 -14.29761
 Alpha  occ. eigenvalues --  -10.32620 -10.32011 -10.31934 -10.29461 -10.22979
 Alpha  occ. eigenvalues --  -10.22021 -10.17026 -10.15961 -10.15845 -10.15220
 Alpha  occ. eigenvalues --  -10.13455  -1.09927  -0.98029  -0.91146  -0.85949
 Alpha  occ. eigenvalues --   -0.84927  -0.83215  -0.83108  -0.78564  -0.77122
 Alpha  occ. eigenvalues --   -0.72770  -0.70071  -0.67303  -0.62798  -0.60673
 Alpha  occ. eigenvalues --   -0.60340  -0.58102  -0.55919  -0.54292  -0.52428
 Alpha  occ. eigenvalues --   -0.51726  -0.49739  -0.49133  -0.48951  -0.48637
 Alpha  occ. eigenvalues --   -0.48621  -0.47209  -0.44193  -0.43031  -0.42173
 Alpha  occ. eigenvalues --   -0.41136  -0.40412  -0.38100  -0.37020  -0.36350
 Alpha  occ. eigenvalues --   -0.35138  -0.33617  -0.31817  -0.31124  -0.30564
 Alpha  occ. eigenvalues --   -0.29149  -0.26886  -0.25298  -0.19640  -0.19087
 Alpha  occ. eigenvalues --   -0.13781  -0.11979  -0.10125
 Alpha virt. eigenvalues --   -0.02773   0.01612   0.02498   0.02671   0.03541
 Alpha virt. eigenvalues --    0.05101   0.05370   0.07123   0.07387   0.07967
 Alpha virt. eigenvalues --    0.07998   0.09634   0.09876   0.11527   0.11579
 Alpha virt. eigenvalues --    0.12818   0.13727   0.14184   0.14652   0.17303
 Alpha virt. eigenvalues --    0.17801   0.18380   0.19394   0.19756   0.21558
 Alpha virt. eigenvalues --    0.22319   0.22985   0.23442   0.25215   0.25847
 Alpha virt. eigenvalues --    0.27426   0.29428   0.31728   0.32492   0.34446
 Alpha virt. eigenvalues --    0.38241   0.38546   0.39327   0.41770   0.43466
 Alpha virt. eigenvalues --    0.44471   0.45658   0.48711   0.49325   0.49827
 Alpha virt. eigenvalues --    0.49920   0.54354   0.54516   0.57714   0.57948
 Alpha virt. eigenvalues --    0.58878   0.59529   0.59982   0.62953   0.63902
 Alpha virt. eigenvalues --    0.64643   0.65935   0.66448   0.67794   0.68791
 Alpha virt. eigenvalues --    0.69493   0.72144   0.72797   0.73233   0.74585
 Alpha virt. eigenvalues --    0.75401   0.75508   0.75993   0.77010   0.79859
 Alpha virt. eigenvalues --    0.80192   0.80352   0.81099   0.81897   0.82472
 Alpha virt. eigenvalues --    0.83416   0.83752   0.84406   0.84537   0.85690
 Alpha virt. eigenvalues --    0.86018   0.87521   0.88129   0.88888   0.89333
 Alpha virt. eigenvalues --    0.89633   0.90786   0.91796   0.93965   0.94036
 Alpha virt. eigenvalues --    0.94511   0.95555   0.95974   0.98115   0.98308
 Alpha virt. eigenvalues --    0.99570   1.00045   1.01757   1.03085   1.05005
 Alpha virt. eigenvalues --    1.05836   1.06958   1.10185   1.11665   1.16705
 Alpha virt. eigenvalues --    1.18368   1.19926   1.21882   1.22376   1.25245
 Alpha virt. eigenvalues --    1.25823   1.29459   1.30379   1.33147   1.36130
 Alpha virt. eigenvalues --    1.38511   1.39543   1.40050   1.43976   1.46412
 Alpha virt. eigenvalues --    1.49362   1.51026   1.52515   1.55224   1.56683
 Alpha virt. eigenvalues --    1.59664   1.60577   1.60635   1.63023   1.65489
 Alpha virt. eigenvalues --    1.67930   1.69733   1.75182   1.75733   1.76367
 Alpha virt. eigenvalues --    1.76841   1.80504   1.81094   1.83845   1.85404
 Alpha virt. eigenvalues --    1.85887   1.88046   1.88281   1.90539   1.91252
 Alpha virt. eigenvalues --    1.93507   1.94059   1.95228   1.96011   1.97501
 Alpha virt. eigenvalues --    1.97587   1.98598   1.99248   1.99617   2.00656
 Alpha virt. eigenvalues --    2.01360   2.02052   2.03648   2.04292   2.07043
 Alpha virt. eigenvalues --    2.08037   2.10424   2.11131   2.12380   2.13110
 Alpha virt. eigenvalues --    2.13616   2.14418   2.14614   2.16175   2.17988
 Alpha virt. eigenvalues --    2.19705   2.21723   2.23013   2.24096   2.24750
 Alpha virt. eigenvalues --    2.27913   2.32964   2.35500   2.39263   2.41306
 Alpha virt. eigenvalues --    2.42117   2.45293   2.46989   2.48337   2.51321
 Alpha virt. eigenvalues --    2.54778   2.58996   2.59337   2.59823   2.63874
 Alpha virt. eigenvalues --    2.66032   2.69237   2.70520   2.73413   2.76157
 Alpha virt. eigenvalues --    2.78893   2.82415   2.86356   2.88755   2.97437
 Alpha virt. eigenvalues --    3.01206   3.04375   3.10658   3.18758   3.29358
 Alpha virt. eigenvalues --    3.98364   4.00376   4.06387   4.11778   4.17418
 Alpha virt. eigenvalues --    4.18795   4.18979   4.21818   4.26262   4.27908
 Alpha virt. eigenvalues --    4.33973   4.42325   4.46263   4.52091   4.55966
 Alpha virt. eigenvalues --    4.73478
          Condensed to atoms (all electrons):
               1          2          3          4          5          6
     1  C    5.334721   0.336865   0.359500   0.356438   0.342412  -0.084815
     2  H    0.336865   0.583141  -0.025554  -0.025975  -0.027171   0.002944
     3  H    0.359500  -0.025554   0.536468  -0.023465  -0.018749   0.000327
     4  H    0.356438  -0.025975  -0.023465   0.538296  -0.019067   0.004531
     5  C    0.342412  -0.027171  -0.018749  -0.019067   4.339927   0.565812
     6  O   -0.084815   0.002944   0.000327   0.004531   0.565812   8.159932
     7  N   -0.121073   0.008410   0.000335   0.003819   0.274438  -0.111075
     8  H   -0.001131   0.001538   0.000303  -0.000173  -0.015483   0.003130
     9  C    0.006443   0.000047  -0.000228  -0.000099  -0.025675   0.007421
    10  C   -0.000062  -0.000026   0.000001   0.000000   0.004466   0.000596
    11  O   -0.000032  -0.000010   0.000000  -0.000000   0.000689  -0.000007
    12  C   -0.001063   0.000055  -0.000000   0.000033  -0.007139  -0.030348
    13  C    0.000002  -0.000000   0.000000  -0.000001   0.000050   0.000393
    14  C    0.000000   0.000000  -0.000000  -0.000000  -0.000017   0.000025
    15  C   -0.000000   0.000000   0.000000  -0.000000   0.000000  -0.000000
    16  N   -0.000000   0.000000  -0.000000   0.000000  -0.000000  -0.000000
    17  C   -0.000000   0.000000   0.000000  -0.000000   0.000000  -0.000000
    18  C    0.000000  -0.000000  -0.000000  -0.000000   0.000000   0.000000
    19  C    0.000000  -0.000000  -0.000000   0.000000  -0.000000   0.000000
    20  O    0.000000  -0.000000  -0.000000  -0.000000  -0.000049  -0.000000
    21  H    0.000159   0.000003   0.000033  -0.000016   0.000492   0.006918
    22  H    0.000746  -0.000071  -0.000006   0.000049   0.000505   0.028654
    23  H    0.000109  -0.000015   0.000001  -0.000009   0.002374   0.000426
    24  H   -0.000000   0.000000  -0.000000  -0.000000  -0.000004  -0.000024
    25  H    0.000001  -0.000000   0.000000  -0.000000   0.000039   0.000231
    26  H   -0.000000   0.000000  -0.000000   0.000000  -0.000000  -0.000060
    27  H    0.000000  -0.000000  -0.000000   0.000000   0.000000   0.000002
    28  H   -0.000000   0.000000   0.000000   0.000000   0.000000  -0.000000
    29  H   -0.000000   0.000000  -0.000000   0.000000   0.000000  -0.000000
    30  H   -0.000000   0.000000  -0.000000   0.000000  -0.000000  -0.000000
    31  H   -0.000000   0.000000  -0.000000   0.000000  -0.000000  -0.000000
    32  H   -0.000000  -0.000000   0.000000   0.000000   0.000000   0.000000
    33  H   -0.000000   0.000000  -0.000000   0.000000  -0.000000  -0.000000
    34  H   -0.000000  -0.000000   0.000000  -0.000000   0.000000   0.000000
    35  H   -0.000000   0.000000   0.000000   0.000000   0.000000  -0.000000
    36  H   -0.000000   0.000000   0.000000   0.000000   0.000000  -0.000000
    37  H   -0.000000   0.000000   0.000000   0.000000   0.000000  -0.000000
    38  H    0.000000  -0.000000   0.000000   0.000000   0.000000   0.000000
               7          8          9         10         11         12
     1  C   -0.121073  -0.001131   0.006443  -0.000062  -0.000032  -0.001063
     2  H    0.008410   0.001538   0.000047  -0.000026  -0.000010   0.000055
     3  H    0.000335   0.000303  -0.000228   0.000001   0.000000  -0.000000
     4  H    0.003819  -0.000173  -0.000099   0.000000  -0.000000   0.000033
     5  C    0.274438  -0.015483  -0.025675   0.004466   0.000689  -0.007139
     6  O   -0.111075   0.003130   0.007421   0.000596  -0.000007  -0.030348
     7  N    7.209063   0.268485   0.184611  -0.016943  -0.008711  -0.047595
     8  H    0.268485   0.411192  -0.049679   0.005555   0.041004   0.004832
     9  C    0.184611  -0.049679   5.294451   0.174286  -0.113546   0.357047
    10  C   -0.016943   0.005555   0.174286   4.403432   0.519087  -0.024176
    11  O   -0.008711   0.041004  -0.113546   0.519087   8.221962  -0.001714
    12  C   -0.047595   0.004832   0.357047  -0.024176  -0.001714   5.124077
    13  C    0.004408  -0.000083  -0.031680  -0.003687   0.000229   0.361082
    14  C   -0.000052  -0.000001   0.003353   0.000652   0.000004  -0.036955
    15  C    0.000000  -0.000000  -0.000071   0.000004  -0.000000   0.002910
    16  N   -0.000000   0.000000   0.000000   0.000000  -0.000000  -0.000056
    17  C    0.000000  -0.000000  -0.000000  -0.000000  -0.000000   0.000001
    18  C   -0.000000  -0.000000   0.000000   0.000000   0.000000  -0.000000
    19  C   -0.000000  -0.000000   0.000000   0.000000   0.000000   0.000002
    20  O    0.002112   0.000733  -0.099453   0.435033  -0.101522  -0.000103
    21  H   -0.054757   0.003629   0.367902  -0.021623   0.001126  -0.063903
    22  H   -0.010719  -0.000465  -0.026611   0.002550  -0.000113   0.356126
    23  H   -0.000150   0.000730  -0.039397  -0.002283   0.000993   0.349209
    24  H    0.000096  -0.000036  -0.003295   0.004061   0.000244  -0.027611
    25  H   -0.000005   0.000003  -0.003426  -0.000245   0.000001  -0.041284
    26  H   -0.000000   0.000000  -0.000089  -0.000026  -0.000000   0.001805
    27  H   -0.000003  -0.000000  -0.000028   0.000029  -0.000000  -0.002573
    28  H   -0.000000   0.000000  -0.000000  -0.000004  -0.000000  -0.000010
    29  H   -0.000000  -0.000000  -0.000001  -0.000000  -0.000000  -0.000042
    30  H    0.000000  -0.000000  -0.000000  -0.000000  -0.000000  -0.000000
    31  H    0.000000  -0.000000   0.000000  -0.000000  -0.000000   0.000001
    32  H   -0.000000   0.000000  -0.000000  -0.000000  -0.000000  -0.000000
    33  H   -0.000000   0.000000   0.000000  -0.000000  -0.000000  -0.000000
    34  H   -0.000000   0.000000  -0.000000  -0.000000  -0.000000   0.000000
    35  H    0.000000   0.000000  -0.000000  -0.000000  -0.000000   0.000000
    36  H    0.000000   0.000000  -0.000000  -0.000000  -0.000000  -0.000000
    37  H   -0.000000   0.000000  -0.000000  -0.000000  -0.000000   0.000000
    38  H   -0.000000   0.000000  -0.000000  -0.000000  -0.000000  -0.000001
[...]
    25  H   -0.000116   0.000004   0.003781   0.000012  -0.000012  -0.029791
    26  H    0.000001  -0.000000  -0.000063   0.000044   0.000101   0.002930
    27  H   -0.000163   0.000018  -0.001558   0.000440   0.012572  -0.003883
    28  H    0.000134   0.000004   0.000126  -0.005114   0.000182  -0.000883
    29  H    0.000000   0.000000   0.000058   0.000187  -0.000021  -0.000127
    30  H   -0.000000  -0.000000   0.000001   0.000033   0.000418  -0.000000
    31  H    0.000000  -0.000000   0.000019   0.000096  -0.000449  -0.000007
    32  H    0.000007  -0.000126   0.002986   0.006834   0.062343  -0.000117
    33  H   -0.000000  -0.000000   0.000001   0.000003  -0.000000  -0.000000
    34  H   -0.000005  -0.000001   0.000641  -0.000556  -0.000589  -0.000022
    35  H   -0.000000   0.000000   0.000002   0.000007  -0.000001  -0.000000
    36  H    0.000000  -0.000000   0.000000   0.000001   0.000000  -0.000000
    37  H   -0.000000  -0.000000   0.000000   0.000001   0.000000  -0.000000
    38  H    0.000000  -0.000000   0.000000   0.000000  -0.000000   0.000002
              13         14         15         16         17         18
     1  C    0.000003  -0.000000  -0.000000  -0.000000   0.000000  -0.000000
     2  H   -0.000000   0.000000  -0.000000  -0.000000  -0.000000  -0.000000
     3  H    0.000000  -0.000000   0.000000   0.000000  -0.000000   0.000000
     4  H   -0.000001   0.000000   0.000000  -0.000000   0.000000  -0.000000
     5  C    0.000047  -0.000002  -0.000000   0.000000  -0.000000   0.000000
     6  O    0.000001  -0.000001   0.000000  -0.000000   0.000000  -0.000000
     7  N    0.004573   0.000004  -0.000031   0.000000   0.000000  -0.000000
     8  H   -0.000061  -0.000014   0.000004  -0.000000   0.000000   0.000000
     9  C   -0.031989  -0.001318  -0.000840   0.000035  -0.000151  -0.000001
    10  C   -0.002398   0.001084   0.001809  -0.000151   0.000074  -0.000008
    11  O   -0.001203  -0.002726  -0.001066   0.000364   0.000083  -0.000012
    12  C    0.351438  -0.033882   0.000420  -0.000074   0.000007  -0.000000
    13  C    5.040178   0.339313  -0.027153   0.002859  -0.000084  -0.000020
    14  C    0.339313   5.098563   0.361400  -0.029854   0.003174  -0.002140
    15  C   -0.027153   0.361400   5.240351   0.184495  -0.043802  -0.040676
    16  N    0.002859  -0.029854   0.184495   6.793119   0.253524   0.258925
    17  C   -0.000084   0.003174  -0.043802   0.253524   5.204380  -0.049941
    18  C   -0.000020  -0.002140  -0.040676   0.258925  -0.049941   5.082560
    19  C    0.000027  -0.002615  -0.037594   0.228273  -0.045415  -0.051219
    20  O    0.001800  -0.001353  -0.034998   0.000005  -0.021194   0.000001
    21  H   -0.001513  -0.000361  -0.000013  -0.000000   0.000004   0.000000
    22  H   -0.033841   0.004525  -0.000073   0.000001  -0.000000  -0.000000
    23  H   -0.038487  -0.011555   0.000319   0.000006   0.000000   0.000000
    24  H    0.376139  -0.051091  -0.005064   0.000215  -0.000008  -0.000004
    25  H    0.367507  -0.034607   0.002932  -0.000097   0.000002   0.000002
    26  H   -0.028595   0.361070  -0.040824   0.000643  -0.000050   0.000236
    27  H   -0.039703   0.371192  -0.034749  -0.006930   0.000014   0.000141
    28  H   -0.000465  -0.034683   0.311414  -0.028840   0.001452   0.003084
    29  H    0.000061  -0.034968   0.355328  -0.040588  -0.002408  -0.004596
    30  H   -0.000009   0.000394   0.004179  -0.032170  -0.004464  -0.005146
    31  H    0.000066   0.002134  -0.004114  -0.032563   0.004405  -0.002372
    32  H    0.000027  -0.002499   0.000391  -0.015949  -0.004922   0.002454
    33  H    0.000002  -0.000182   0.004410  -0.032938   0.363069  -0.002652
    34  H   -0.000015   0.000131  -0.003009  -0.025619   0.318185   0.003433
    35  H   -0.000005   0.000135  -0.001533  -0.032427   0.371602  -0.003896
    36  H    0.000001  -0.000130   0.004354  -0.031861  -0.003031   0.374447
    37  H   -0.000001  -0.000017  -0.003720  -0.030744  -0.002261   0.374723
    38  H   -0.000060   0.002667  -0.003269  -0.030772   0.004607   0.378036
              19         20         21         22         23         24
     1  C   -0.000000   0.000001   0.000483   0.000187   0.000026   0.000000
     2  H    0.000000   0.000000  -0.000024  -0.000026  -0.000005   0.000000
     3  H   -0.000000  -0.000000   0.000022   0.000002   0.000001   0.000000
     4  H    0.000000   0.000000  -0.000015  -0.000001  -0.000008  -0.000000
     5  C    0.000000  -0.000107  -0.000591   0.005696   0.000586   0.000006
     6  O   -0.000000  -0.000000   0.008271   0.009540  -0.000072  -0.000001
     7  N    0.000000   0.001659  -0.048885  -0.010179  -0.001836   0.000003
     8  H    0.000024   0.000704   0.005099  -0.000312   0.002793   0.000003
     9  C   -0.000833  -0.091214   0.359368  -0.026518  -0.036388  -0.004713
    10  C   -0.003462   0.415998  -0.032831   0.003893  -0.006860  -0.000940
    11  O   -0.028127  -0.085471   0.003873  -0.000003   0.007128   0.000042
    12  C   -0.000018  -0.000292  -0.043353   0.361961   0.356865  -0.035092
    13  C    0.000027   0.001800  -0.001513  -0.033841  -0.038487   0.376139
    14  C   -0.002615  -0.001353  -0.000361   0.004525  -0.011555  -0.051091
    15  C   -0.037594  -0.034998  -0.000013  -0.000073   0.000319  -0.005064
    16  N    0.228273   0.000005  -0.000000   0.000001   0.000006   0.000215
    17  C   -0.045415  -0.021194   0.000004  -0.000000   0.000000  -0.000008
    18  C   -0.051219   0.000001   0.000000  -0.000000   0.000000  -0.000004
    19  C    5.293078   0.000321   0.000018  -0.000001   0.000043   0.000014
    20  O    0.000321   8.299820   0.007189  -0.000108   0.000117   0.000110
    21  H    0.000018   0.007189   0.585214  -0.006039   0.006159   0.003802
    22  H   -0.000001  -0.000108  -0.006039   0.568478  -0.034166  -0.001498
    23  H    0.000043   0.000117   0.006159  -0.034166   0.610134   0.005510
    24  H    0.000014   0.000110   0.003802  -0.001498   0.005510   0.591401
    25  H    0.000007   0.000004  -0.000135  -0.005515  -0.002194  -0.036183
    26  H   -0.001076  -0.000031   0.000004  -0.000172   0.000451   0.002694
    27  H    0.006175  -0.000929   0.000119   0.000346   0.006695   0.004024
    28  H    0.000311   0.062670   0.000452  -0.000118  -0.000039   0.001901
    29  H    0.004375   0.001041  -0.000012   0.000007  -0.000005   0.001921
    30  H    0.362203  -0.000028  -0.000000   0.000000   0.000000   0.000000
    31  H    0.372118   0.000115  -0.000000  -0.000000  -0.000005   0.000000
    32  H    0.278935   0.000940  -0.000075   0.000006  -0.000161  -0.000008
    33  H   -0.004606   0.000261  -0.000000   0.000000   0.000000   0.000000
    34  H   -0.004653   0.048694  -0.000022   0.000000  -0.000000  -0.000008
    35  H    0.004635   0.000142  -0.000000   0.000000   0.000000   0.000004
    36  H   -0.001321   0.000001  -0.000000   0.000000  -0.000000   0.000000
    37  H    0.004631  -0.000001  -0.000000   0.000000  -0.000000   0.000001
    38  H   -0.003205   0.000001   0.000000  -0.000000   0.000000   0.000004
              25         26         27         28         29         30
     1  C   -0.000000   0.000000  -0.000000   0.000000  -0.000000   0.000000
     2  H    0.000000  -0.000000   0.000000   0.000000   0.000000   0.000000
     3  H   -0.000000   0.000000  -0.000000  -0.000000  -0.000000  -0.000000
     4  H    0.000000  -0.000000   0.000000  -0.000000   0.000000   0.000000
     5  C   -0.000010  -0.000000  -0.000004  -0.000000   0.000000  -0.000000
     6  O    0.000001   0.000000   0.000000  -0.000000  -0.000000   0.000000
     7  N   -0.000116   0.000001  -0.000163   0.000134   0.000000  -0.000000
     8  H    0.000004  -0.000000   0.000018   0.000004   0.000000  -0.000000
     9  C    0.003781  -0.000063  -0.001558   0.000126   0.000058   0.000001
    10  C    0.000012   0.000044   0.000440  -0.005114   0.000187   0.000033
    11  O   -0.000012   0.000101   0.012572   0.000182  -0.000021   0.000418
    12  C   -0.029791   0.002930  -0.003883  -0.000883  -0.000127  -0.000000
    13  C    0.367507  -0.028595  -0.039703  -0.000465   0.000061  -0.000009
    14  C   -0.034607   0.361070   0.371192  -0.034683  -0.034968   0.000394
    15  C    0.002932  -0.040824  -0.034749   0.311414   0.355328   0.004179
    16  N   -0.000097   0.000643  -0.006930  -0.028840  -0.040588  -0.032170
    17  C    0.000002  -0.000050   0.000014   0.001452  -0.002408  -0.004464
    18  C    0.000002   0.000236   0.000141   0.003084  -0.004596  -0.005146
    19  C    0.000007  -0.001076   0.006175   0.000311   0.004375   0.362203
    20  O    0.000004  -0.000031  -0.000929   0.062670   0.001041  -0.000028
    21  H   -0.000135   0.000004   0.000119   0.000452  -0.000012  -0.000000
    22  H   -0.005515  -0.000172   0.000346  -0.000118   0.000007   0.000000
    23  H   -0.002194   0.000451   0.006695  -0.000039  -0.000005   0.000000
    24  H   -0.036183   0.002694   0.004024   0.001901   0.001921   0.000000
    25  H    0.601600  -0.009264   0.002030   0.000076  -0.000004   0.000000
    26  H   -0.009264   0.614231  -0.030848   0.003802  -0.007997  -0.000028
    27  H    0.002030  -0.030848   0.523122  -0.004115   0.003914   0.000305
    28  H    0.000076   0.003802  -0.004115   0.452429  -0.020986  -0.000142
    29  H   -0.000004  -0.007997   0.003914  -0.020986   0.584436  -0.000162
    30  H    0.000000  -0.000028   0.000305  -0.000142  -0.000162   0.544260
    31  H   -0.000000   0.000217  -0.000844  -0.000016   0.000014  -0.031597
    32  H   -0.000002   0.000174  -0.001443  -0.000526  -0.000037  -0.012962
    33  H   -0.000000   0.000006  -0.000005   0.000458  -0.000188   0.004386
    34  H   -0.000000  -0.000013  -0.000031  -0.003097   0.000248  -0.000505
    35  H   -0.000000  -0.000009   0.000009  -0.001444   0.003310   0.000122
    36  H   -0.000000  -0.000043  -0.000001  -0.000145   0.000304   0.004215
    37  H   -0.000000   0.000021   0.000010  -0.000005   0.004241  -0.000050
    38  H   -0.000000   0.002443  -0.000114   0.000093  -0.000889  -0.000243
              31         32         33         34         35         36
     1  C   -0.000000   0.000000  -0.000000  -0.000000  -0.000000   0.000000
     2  H   -0.000000  -0.000000  -0.000000  -0.000000  -0.000000  -0.000000
     3  H    0.000000   0.000000   0.000000   0.000000   0.000000   0.000000
     4  H   -0.000000  -0.000000  -0.000000  -0.000000  -0.000000  -0.000000
     5  C    0.000000   0.000000   0.000000   0.000000   0.000000   0.000000
     6  O   -0.000000   0.000000  -0.000000  -0.000000  -0.000000   0.000000
     7  N    0.000000   0.000007  -0.000000  -0.000005  -0.000000   0.000000
     8  H   -0.000000  -0.000126  -0.000000  -0.000001   0.000000  -0.000000
     9  C    0.000019   0.002986   0.000001   0.000641   0.000002   0.000000
    10  C    0.000096   0.006834   0.000003  -0.000556   0.000007   0.000001
    11  O   -0.000449   0.062343  -0.000000  -0.000589  -0.000001   0.000000
    12  C   -0.000007  -0.000117  -0.000000  -0.000022  -0.000000  -0.000000
    13  C    0.000066   0.000027   0.000002  -0.000015  -0.000005   0.000001
    14  C    0.002134  -0.002499  -0.000182   0.000131   0.000135  -0.000130
    15  C   -0.004114   0.000391   0.004410  -0.003009  -0.001533   0.004354
    16  N   -0.032563  -0.015949  -0.032938  -0.025619  -0.032427  -0.031861
    17  C    0.004405  -0.004922   0.363069   0.318185   0.371602  -0.003031
    18  C   -0.002372   0.002454  -0.002652   0.003433  -0.003896   0.374447
    19  C    0.372118   0.278935  -0.004606  -0.004653   0.004635  -0.001321
    20  O    0.000115   0.000940   0.000261   0.048694   0.000142   0.000001
    21  H   -0.000000  -0.000075  -0.000000  -0.000022  -0.000000  -0.000000
    22  H   -0.000000   0.000006   0.000000   0.000000   0.000000   0.000000
    23  H   -0.000005  -0.000161   0.000000  -0.000000   0.000000  -0.000000
    24  H    0.000000  -0.000008   0.000000  -0.000008   0.000004   0.000000
    25  H   -0.000000  -0.000002  -0.000000  -0.000000  -0.000000  -0.000000
    26  H    0.000217   0.000174   0.000006  -0.000013  -0.000009  -0.000043
    27  H   -0.000844  -0.001443  -0.000005  -0.000031   0.000009  -0.000001
    28  H   -0.000016  -0.000526   0.000458  -0.003097  -0.001444  -0.000145
    29  H    0.000014  -0.000037  -0.000188   0.000248   0.003310   0.000304
    30  H   -0.031597  -0.012962   0.004386  -0.000505   0.000122   0.004215
    31  H    0.527755  -0.015833   0.000053   0.000193  -0.000228  -0.000686
    32  H   -0.015833   0.394572   0.000139   0.005876   0.000015   0.000081
    33  H    0.000053   0.000139   0.539811  -0.015095  -0.029969   0.003610
    34  H    0.000193   0.005876  -0.015095   0.418740  -0.016566   0.000008
    35  H   -0.000228   0.000015  -0.029969  -0.016566   0.523687  -0.000209
    36  H   -0.000686   0.000081   0.003610   0.000008  -0.000209   0.513319
    37  H    0.000095  -0.000106  -0.000442   0.000039   0.003920  -0.025847
    38  H    0.003617   0.000018   0.000012  -0.000148  -0.000042  -0.025714
              37         38
     1  C    0.000000   0.000000
     2  H    0.000000  -0.000000
     3  H    0.000000   0.000000
     4  H   -0.000000  -0.000000
     5  C   -0.000000   0.000000
     6  O    0.000000   0.000000
     7  N   -0.000000   0.000000
     8  H   -0.000000  -0.000000
     9  C    0.000000   0.000000
    10  C    0.000001   0.000000
    11  O    0.000000  -0.000000
    12  C   -0.000000   0.000002
    13  C   -0.000001  -0.000060
    14  C   -0.000017   0.002667
    15  C   -0.003720  -0.003269
    16  N   -0.030744  -0.030772
    17  C   -0.002261   0.004607
    18  C    0.374723   0.378036
    19  C    0.004631  -0.003205
    20  O   -0.000001   0.000001
    21  H   -0.000000   0.000000
    22  H    0.000000  -0.000000
    23  H   -0.000000   0.000000
    24  H    0.000001   0.000004
    25  H   -0.000000  -0.000000
    26  H    0.000021   0.002443
    27  H    0.000010  -0.000114
    28  H   -0.000005   0.000093
    29  H    0.004241  -0.000889
    30  H   -0.000050  -0.000243
    31  H    0.000095   0.003617
    32  H   -0.000106   0.000018
    33  H   -0.000442   0.000012
    34  H    0.000039  -0.000148
    35  H    0.003920  -0.000042
    36  H   -0.025847  -0.025714
    37  H    0.509765  -0.024693
    38  H   -0.024693   0.497865
 Mulliken charges:
               1
     1  C   -0.530623
     2  H    0.141053
     3  H    0.175546
     4  H    0.170829
     5  C    0.596594
     6  O   -0.537209
     7  N   -0.602513
     8  H    0.332432
     9  C    0.007472
    10  C    0.558255
    11  O   -0.606754
    12  C   -0.269727
    13  C   -0.278440
    14  C   -0.301788
    15  C   -0.189279
    16  N   -0.350885
    17  C   -0.346854
    18  C   -0.315359
    19  C   -0.371041
    20  O   -0.605867
    21  H    0.153790
    22  H    0.163927
    23  H    0.134948
    24  H    0.146814
    25  H    0.139972
    26  H    0.129944
    27  H    0.194192
    28  H    0.262030
    29  H    0.153540
    30  H    0.166989
    31  H    0.177817
    32  H    0.298967
    33  H    0.169858
    34  H    0.273763
    35  H    0.178740
    36  H    0.188645
    37  H    0.190440
    38  H    0.199784
 Sum of Mulliken charges =  -0.00000
 Mulliken charges with hydrogens summed into heavy atoms:
               1
     1  C   -0.043195
     5  C    0.596594
     6  O   -0.537209
     7  N   -0.270082
     9  C    0.161262
    10  C    0.558255
    11  O   -0.606754
    12  C    0.029148
    13  C    0.008346
    14  C    0.022349
    15  C    0.226291
    16  N   -0.350885
    17  C    0.275507
    18  C    0.263509
    19  C    0.272732
    20  O   -0.605867
 Electronic spatial extent (au):  <R**2>=           4944.5586
 Charge=             -0.0000 electrons
 Dipole moment (field-independent basis, Debye):
    X=            -12.0791    Y=             -1.7011    Z=              2.5031  Tot=             12.4525
 Quadrupole moment (field-independent basis, Debye-Ang):
   XX=            -71.5844   YY=           -100.7646   ZZ=           -101.0077
   XY=              7.7201   XZ=              8.3154   YZ=             -1.2513
 Traceless Quadrupole moment (field-independent basis, Debye-Ang):
   XX=             19.5345   YY=             -9.6457   ZZ=             -9.8888
   XY=              7.7201   XZ=              8.3154   YZ=             -1.2513
 Octapole moment (field-independent basis, Debye-Ang**2):
  XXX=           -191.1711  YYY=              0.7012  ZZZ=              1.0242  XYY=            -14.0214
  XXY=             53.1469  XXZ=             38.6280  XZZ=            -17.3936  YZZ=             -1.5850
  YYZ=              1.0635  XYZ=             -8.3060
 Hexadecapole moment (field-independent basis, Debye-Ang**3):
 XXXX=          -4666.7935 YYYY=           -889.5923 ZZZZ=           -458.5890 XXXY=            142.7683
 XXXZ=            157.7107 YYYX=            -15.1365 YYYZ=             -2.6010 ZZZX=              1.6394
 ZZZY=              4.4829 XXYY=           -966.5480 XXZZ=           -914.4126 YYZZ=           -229.8218
 XXYZ=            -38.1719 YYXZ=              4.3438 ZZXY=              5.0786
 N-N= 1.225581950622D+03 E-N=-4.239495459774D+03  KE= 7.604280592275D+02
 No NMR shielding tensors so no spin-rotation constants.
 Leave Link  601 at Sun May 31 21:57:43 2026, MaxMem=    67108864 cpu:               1.8 elap:               0.1
 (Enter /software/local/apps/gaussian-16.0/g16/l9999.exe)
 Unable to Open any file for archive entry.
 1\1\GINC-BP1-COMPUTE077\FOpt\RB3LYP\6-31G(d)\C11H22N2O3\XV24323\31-May
 -2026\0\\#P b3lyp/6-31g* opt\\KM3_cterm b3lyp/6-31g* geometry optimisa
 tion\\0,1\C,21.7559620278,3.2332554903,6.1655289424\H,22.6439277651,3.
 5236182362,6.7361704782\H,22.0414462649,2.4729781114,5.4311169355\H,21
 .0286876671,2.7743568935,6.8425176004\C,21.0872543019,4.3938338366,5.4
 358573247\O,20.0519638279,4.2348861557,4.7908375049\N,21.7230654785,5.
 5890957573,5.5394367475\H,22.5345383742,5.7103185432,6.1330540596\C,21
 .251283647,6.8195713405,4.9112978715\C,22.4739395673,7.7685174509,4.79
 17504671\O,23.134645366,7.9356190377,5.8527715425\C,20.1062667534,7.41
 60706277,5.7739299173\C,19.5044582131,8.7792108664,5.3680401549\C,20.3
 897911517,10.0148101138,5.7179864456\C,21.0263108575,10.5846652183,4.4
 508829124\N,22.2773309756,11.4757213362,4.6404546956\C,23.0599978913,1
 1.3954258867,3.3528780508\C,21.8652027818,12.8880387509,4.9117161978\C
 ,23.1824955846,11.0030104324,5.7566891453\O,22.6565500576,8.3354666714
 ,3.677381999\H,20.8738074038,6.5765337326,3.9151576851\H,19.3030903563
 ,6.6706029319,5.7724977203\H,20.476166503,7.4879103816,6.8049547648\H,
 19.2568041856,8.7782242289,4.2972803627\H,18.5471157865,8.8862026298,5
 .8912210532\H,19.7931761662,10.7781423859,6.2339339837\H,21.1642061264
 ,9.67725794,6.4099963563\H,21.3760810774,9.7579425427,3.829966159\H,20
 .3213458659,11.2040016317,3.8868334108\H,24.1058165191,11.5830112954,5
 .6879045808\H,22.6968226026,11.2097577161,6.7106737643\H,23.3810819188
 ,9.9247287266,5.6590066001\H,23.9184549889,12.0675528627,3.4203235942\
 H,23.3609508853,10.3483990236,3.237636382\H,22.4081189853,11.700693382
 5,2.5314556788\H,22.7561875586,13.4978438606,5.0759238591\H,21.3077831
 783,13.2703033245,4.0544766363\H,21.2348713375,12.9074206456,5.8024584
 157\\Version=ES64L-G16RevC.01\State=1-A\HF=-767.5770615\RMSD=3.522e-09
 \RMSF=5.702e-06\Dipole=0.1937771,4.8716486,0.4811881\Quadrupole=-8.925
 7656,14.3976498,-5.4718842,-3.4170008,-1.2348008,-7.6539996\PG=C01 [X(
 C11H22N2O3)]\\@
 The archive entry for this job was punched.


 A SOLDIER'S LIFE IS A LIFE OF HONOR, BUT A DOG WOULD NOT LEAD IT.
 -- PRINCE RUPERT, FOUNDER OF THE HUDSON'S BAY COMPANY
 Job cpu time:       0 days  5 hours  5 minutes 26.2 seconds.
 Elapsed time:       0 days  0 hours 19 minutes 29.6 seconds.
 File lengths (MBytes):  RWF=    168 Int=      0 D2E=      0 Chk=     16 Scr=     16
 Normal termination of Gaussian 16 at Sun May 31 21:57:43 2026.
