 Entering Gaussian System, Link 0=g16
 Initial command:
 /software/local/apps/gaussian-16.0/g16/l1.exe "/user/work/xv24323/CRAFT_SCSC/CYA_ASA/Gau-3811384.inp" -scrdir="/user/work/xv24323/CRAFT_SCSC/CYA_ASA/"
 Entering Link 1 = /software/local/apps/gaussian-16.0/g16/l1.exe PID=   3811385.
  
 Copyright (c) 1988-2019, Gaussian, Inc.  All Rights Reserved.
  
 This is part of the Gaussian(R) 16 program.  It is based on
 the Gaussian(R) 09 system (copyright 2009, Gaussian, Inc.),
 the Gaussian(R) 03 system (copyright 2003, Gaussian, Inc.),
 the Gaussian(R) 98 system (copyright 1998, Gaussian, Inc.),
 the Gaussian(R) 94 system (copyright 1995, Gaussian, Inc.),
 the Gaussian 92(TM) system (copyright 1992, Gaussian, Inc.),
 the Gaussian 90(TM) system (copyright 1990, Gaussian, Inc.),
 the Gaussian 88(TM) system (copyright 1988, Gaussian, Inc.),
 the Gaussian 86(TM) system (copyright 1986, Carnegie Mellon
 University), and the Gaussian 82(TM) system (copyright 1983,
 Carnegie Mellon University). Gaussian is a federally registered
 trademark of Gaussian, Inc.
  
 This software contains proprietary and confidential information,
 including trade secrets, belonging to Gaussian, Inc.
  
 This software is provided under written license and may be
 used, copied, transmitted, or stored only in accord with that
 written license.
  
 The following legend is applicable only to US Government
 contracts under FAR:
  
                    RESTRICTED RIGHTS LEGEND
  
 Use, reproduction and disclosure by the US Government is
 subject to restrictions as set forth in subparagraphs (a)
 and (c) of the Commercial Computer Software - Restricted
 Rights clause in FAR 52.227-19.
  
 Gaussian, Inc.
 340 Quinnipiac St., Bldg. 40, Wallingford CT 06492
  
  
 ---------------------------------------------------------------
 Warning -- This program may not be used in any manner that
 competes with the business of Gaussian, Inc. or will provide
 assistance to any competitor of Gaussian, Inc.  The licensee
 of this program is prohibited from giving any competitor of
 Gaussian, Inc. access to this program.  By using this program,
 the user acknowledges that Gaussian, Inc. is engaged in the
 business of creating and licensing software in the field of
 computational chemistry and represents and warrants to the
 licensee that it is not a competitor of Gaussian, Inc. and that
 it will not use this program in any manner prohibited above.
 ---------------------------------------------------------------
  

 Cite this work as:
 Gaussian 16, Revision C.01,
 M. J. Frisch, G. W. Trucks, H. B. Schlegel, G. E. Scuseria, 
 M. A. Robb, J. R. Cheeseman, G. Scalmani, V. Barone, 
 G. A. Petersson, H. Nakatsuji, X. Li, M. Caricato, A. V. Marenich, 
 J. Bloino, B. G. Janesko, R. Gomperts, B. Mennucci, H. P. Hratchian, 
 J. V. Ortiz, A. F. Izmaylov, J. L. Sonnenberg, D. Williams-Young, 
 F. Ding, F. Lipparini, F. Egidi, J. Goings, B. Peng, A. Petrone, 
 T. Henderson, D. Ranasinghe, V. G. Zakrzewski, J. Gao, N. Rega, 
 G. Zheng, W. Liang, M. Hada, M. Ehara, K. Toyota, R. Fukuda, 
 J. Hasegawa, M. Ishida, T. Nakajima, Y. Honda, O. Kitao, H. Nakai, 
 T. Vreven, K. Throssell, J. A. Montgomery, Jr., J. E. Peralta, 
 F. Ogliaro, M. J. Bearpark, J. J. Heyd, E. N. Brothers, K. N. Kudin, 
 V. N. Staroverov, T. A. Keith, R. Kobayashi, J. Normand, 
 K. Raghavachari, A. P. Rendell, J. C. Burant, S. S. Iyengar, 
 J. Tomasi, M. Cossi, J. M. Millam, M. Klene, C. Adamo, R. Cammi, 
 J. W. Ochterski, R. L. Martin, K. Morokuma, O. Farkas, 
 J. B. Foresman, and D. J. Fox, Gaussian, Inc., Wallingford CT, 2019.
 
 ******************************************
 Gaussian 16:  ES64L-G16RevC.01  3-Jul-2019
                 9-Jun-2026 
 ******************************************
 %nprocshared=16
 Will use up to   16 processors via shared memory.
 %mem=512MB
 -------------------------------------------
 #p hf/6-31g(d) SCF=Tight Pop=MK IOp(6/33=2)
 -------------------------------------------
 1/38=1,172=1/1;
 2/12=2,17=6,18=5,40=1/2;
 3/5=1,6=6,7=1,11=9,25=1,30=1/1,2,3;
 4//1;
 5/5=2,32=2,38=5/2;
 6/7=2,8=2,9=2,10=2,15=8,20=1,28=1,33=2/1,2;
 99/5=1,9=1/99;
 Leave Link    1 at Tue Jun  9 13:53:07 2026, MaxMem=    67108864 cpu:               6.6 elap:               0.4
 (Enter /software/local/apps/gaussian-16.0/g16/l101.exe)
 ------------
 CYA_ASA_bond
 ------------
 Symbolic Z-matrix:
 Charge =  0 Multiplicity = 1
 C                     2.32548  -3.51355  -1.64483 
 H                     1.70826  -4.06753  -0.93722 
 H                     3.32347  -3.95004  -1.67617 
 H                     1.87627  -3.56407  -2.63669 
 C                     2.42165  -2.0602   -1.20567 
 O                     2.88669  -1.22043  -1.97275 
 N                     1.9996   -1.70612   0.01072 
 H                     1.3718   -2.30335   0.53044 
 C                     2.07785  -0.31225   0.46298 
 H                     1.33797   0.28119  -0.05599 
 C                     1.82811  -0.27507   1.99763 
 H                     1.88044  -1.28045   2.42179 
 H                     2.58462   0.32754   2.50822 
 S                     0.24495   0.52367   2.49911 
 C                     3.45821   0.24828   0.12495 
 O                     4.44734  -0.44403   0.06846 
 N                     3.57631   1.55608  -0.11804 
 H                     2.75227   2.13889  -0.07188 
 C                     4.86627   2.12972  -0.44253 
 H                     5.60018   1.3325   -0.55745 
 H                     5.1783    2.79818   0.35909 
 H                     4.79022   2.6899   -1.37485 
 C                    -0.89576   3.3013   -1.50979 
 H                    -1.85394   3.81245  -1.61342 
 H                    -0.43061   3.20053  -2.49007 
 H                    -0.24445   3.87954  -0.85511 
 C                    -1.12028   1.91955  -0.91093 
 O                    -0.16184   1.27044  -0.50019 
 N                    -2.35864   1.42435  -0.83549 
 H                    -3.154     1.97618  -1.17626 
 C                    -2.54743   0.37907  -0.38644 
 H                    -1.96164  -0.468    -0.80184 
 C                    -2.24417   0.26893   1.23232 
 H                    -2.27778   1.28319   1.64159 
 H                    -3.02474  -0.31729   1.72553 
 C                    -0.92784  -0.41653   1.50695 
 O                    -0.70284  -1.53656   1.08418 
 C                    -4.09064  -0.03705  -0.52059 
 O                    -4.89849   0.72204  -1.04959 
 N                    -4.49977  -1.21969  -0.05448 
 H                    -3.82594  -1.83487   0.37897 
 C                    -5.88916  -1.61397  -0.16707 
 H                    -5.9807   -2.68202   0.02614 
 H                    -6.24884  -1.39401  -1.17237 
 H                    -6.4836   -1.06057   0.55997 
 
 ITRead=  0  0  0  0  0  0  0  0  0  0  0  0  0  0  0  0  0  0  0  0
 ITRead=  0  0  0  0  0  0  0  0  0  0  0  0  0  0  0  0  0  0  0  0
 ITRead=  0  0  0  0  0
 MicOpt= -1 -1 -1 -1 -1 -1 -1 -1 -1 -1 -1 -1 -1 -1 -1 -1 -1 -1 -1 -1
 MicOpt= -1 -1 -1 -1 -1 -1 -1 -1 -1 -1 -1 -1 -1 -1 -1 -1 -1 -1 -1 -1
 MicOpt= -1 -1 -1 -1 -1
 NAtoms=     45 NQM=       45 NQMF=       0 NMMI=      0 NMMIF=      0
                NMic=       0 NMicF=      0.
                    Isotopes and Nuclear Properties:
 (Nuclear quadrupole moments (NQMom) in fm**2, nuclear magnetic moments (NMagM)
  in nuclear magnetons)

  Atom         1           2           3           4           5           6           7           8           9          10
 IAtWgt=          12           1           1           1          12          16          14           1          12           1
 AtmWgt=  12.0000000   1.0078250   1.0078250   1.0078250  12.0000000  15.9949146  14.0030740   1.0078250  12.0000000   1.0078250
 NucSpn=           0           1           1           1           0           0           2           1           0           1
 AtZEff=  -0.0000000  -0.0000000  -0.0000000  -0.0000000  -0.0000000  -0.0000000  -0.0000000  -0.0000000  -0.0000000  -0.0000000
 NQMom=    0.0000000   0.0000000   0.0000000   0.0000000   0.0000000   0.0000000   2.0440000   0.0000000   0.0000000   0.0000000
 NMagM=    0.0000000   2.7928460   2.7928460   2.7928460   0.0000000   0.0000000   0.4037610   2.7928460   0.0000000   2.7928460
 AtZNuc=   6.0000000   1.0000000   1.0000000   1.0000000   6.0000000   8.0000000   7.0000000   1.0000000   6.0000000   1.0000000

  Atom        11          12          13          14          15          16          17          18          19          20
 IAtWgt=          12           1           1          32          12          16          14           1          12           1
 AtmWgt=  12.0000000   1.0078250   1.0078250  31.9720718  12.0000000  15.9949146  14.0030740   1.0078250  12.0000000   1.0078250
 NucSpn=           0           1           1           0           0           0           2           1           0           1
 AtZEff=  -0.0000000  -0.0000000  -0.0000000  -0.0000000  -0.0000000  -0.0000000  -0.0000000  -0.0000000  -0.0000000  -0.0000000
 NQMom=    0.0000000   0.0000000   0.0000000   0.0000000   0.0000000   0.0000000   2.0440000   0.0000000   0.0000000   0.0000000
 NMagM=    0.0000000   2.7928460   2.7928460   0.0000000   0.0000000   0.0000000   0.4037610   2.7928460   0.0000000   2.7928460
 AtZNuc=   6.0000000   1.0000000   1.0000000  16.0000000   6.0000000   8.0000000   7.0000000   1.0000000   6.0000000   1.0000000

  Atom        21          22          23          24          25          26          27          28          29          30
 IAtWgt=           1           1          12           1           1           1          12          16          14           1
 AtmWgt=   1.0078250   1.0078250  12.0000000   1.0078250   1.0078250   1.0078250  12.0000000  15.9949146  14.0030740   1.0078250
 NucSpn=           1           1           0           1           1           1           0           0           2           1
 AtZEff=  -0.0000000  -0.0000000  -0.0000000  -0.0000000  -0.0000000  -0.0000000  -0.0000000  -0.0000000  -0.0000000  -0.0000000
 NQMom=    0.0000000   0.0000000   0.0000000   0.0000000   0.0000000   0.0000000   0.0000000   0.0000000   2.0440000   0.0000000
 NMagM=    2.7928460   2.7928460   0.0000000   2.7928460   2.7928460   2.7928460   0.0000000   0.0000000   0.4037610   2.7928460
 AtZNuc=   1.0000000   1.0000000   6.0000000   1.0000000   1.0000000   1.0000000   6.0000000   8.0000000   7.0000000   1.0000000

  Atom        31          32          33          34          35          36          37          38          39          40
 IAtWgt=          12           1          12           1           1          12          16          12          16          14
 AtmWgt=  12.0000000   1.0078250  12.0000000   1.0078250   1.0078250  12.0000000  15.9949146  12.0000000  15.9949146  14.0030740
 NucSpn=           0           1           0           1           1           0           0           0           0           2
 AtZEff=  -0.0000000  -0.0000000  -0.0000000  -0.0000000  -0.0000000  -0.0000000  -0.0000000  -0.0000000  -0.0000000  -0.0000000
 NQMom=    0.0000000   0.0000000   0.0000000   0.0000000   0.0000000   0.0000000   0.0000000   0.0000000   0.0000000   2.0440000
 NMagM=    0.0000000   2.7928460   0.0000000   2.7928460   2.7928460   0.0000000   0.0000000   0.0000000   0.0000000   0.4037610
 AtZNuc=   6.0000000   1.0000000   6.0000000   1.0000000   1.0000000   6.0000000   8.0000000   6.0000000   8.0000000   7.0000000

  Atom        41          42          43          44          45
 IAtWgt=           1          12           1           1           1
 AtmWgt=   1.0078250  12.0000000   1.0078250   1.0078250   1.0078250
 NucSpn=           1           0           1           1           1
 AtZEff=  -0.0000000  -0.0000000  -0.0000000  -0.0000000  -0.0000000
 NQMom=    0.0000000   0.0000000   0.0000000   0.0000000   0.0000000
 NMagM=    2.7928460   0.0000000   2.7928460   2.7928460   2.7928460
 AtZNuc=   1.0000000   6.0000000   1.0000000   1.0000000   1.0000000
 Leave Link  101 at Tue Jun  9 13:53:07 2026, MaxMem=    67108864 cpu:               2.2 elap:               0.2
 (Enter /software/local/apps/gaussian-16.0/g16/l202.exe)
                          Input orientation:                          
 ---------------------------------------------------------------------
 Center     Atomic      Atomic             Coordinates (Angstroms)
 Number     Number       Type             X           Y           Z
 ---------------------------------------------------------------------
      1          6           0        2.325480   -3.513547   -1.644829
      2          1           0        1.708264   -4.067529   -0.937217
      3          1           0        3.323465   -3.950035   -1.676172
      4          1           0        1.876271   -3.564071   -2.636690
      5          6           0        2.421652   -2.060201   -1.205668
      6          8           0        2.886691   -1.220428   -1.972754
      7          7           0        1.999597   -1.706120    0.010722
      8          1           0        1.371795   -2.303353    0.530436
      9          6           0        2.077850   -0.312249    0.462978
     10          1           0        1.337972    0.281185   -0.055989
     11          6           0        1.828111   -0.275068    1.997633
     12          1           0        1.880440   -1.280446    2.421794
     13          1           0        2.584616    0.327540    2.508216
     14         16           0        0.244954    0.523672    2.499109
     15          6           0        3.458205    0.248281    0.124951
     16          8           0        4.447339   -0.444028    0.068461
     17          7           0        3.576309    1.556077   -0.118040
     18          1           0        2.752265    2.138893   -0.071877
     19          6           0        4.866274    2.129716   -0.442533
     20          1           0        5.600177    1.332501   -0.557446
     21          1           0        5.178303    2.798176    0.359085
     22          1           0        4.790221    2.689900   -1.374851
     23          6           0       -0.895758    3.301299   -1.509789
     24          1           0       -1.853940    3.812449   -1.613423
     25          1           0       -0.430614    3.200534   -2.490074
     26          1           0       -0.244454    3.879543   -0.855114
     27          6           0       -1.120276    1.919553   -0.910927
     28          8           0       -0.161835    1.270444   -0.500194
     29          7           0       -2.358639    1.424348   -0.835486
     30          1           0       -3.154003    1.976183   -1.176260
     31          6           0       -2.547429    0.379066   -0.386435
     32          1           0       -1.961644   -0.468002   -0.801835
     33          6           0       -2.244172    0.268926    1.232324
     34          1           0       -2.277778    1.283192    1.641594
     35          1           0       -3.024745   -0.317289    1.725532
     36          6           0       -0.927836   -0.416534    1.506947
     37          8           0       -0.702843   -1.536564    1.084183
     38          6           0       -4.090639   -0.037047   -0.520594
     39          8           0       -4.898487    0.722037   -1.049592
     40          7           0       -4.499774   -1.219691   -0.054475
     41          1           0       -3.825937   -1.834865    0.378971
     42          6           0       -5.889155   -1.613969   -0.167067
     43          1           0       -5.980701   -2.682016    0.026140
     44          1           0       -6.248843   -1.394010   -1.172372
     45          1           0       -6.483603   -1.060574    0.559967
 ---------------------------------------------------------------------
                    Distance matrix (angstroms):
                    1          2          3          4          5
     1  C    0.000000
     2  H    1.090214   0.000000
     3  H    1.089715   1.780094   0.000000
     4  H    1.090014   1.780423   1.779307   0.000000
     5  C    1.521291   2.147174   2.146186   2.146367   0.000000
     6  O    2.383461   3.250694   2.780195   2.637124   1.228780
     7  N    2.472618   2.561194   3.103771   3.236662   1.335331
     8  H    2.665682   2.319382   3.374862   3.445953   2.043375
     9  C    3.840896   4.024831   4.400114   4.496990   2.440884
    10  H    4.230789   4.452527   4.946756   4.662164   2.824573
    11  C    4.899250   4.796923   5.407246   5.683028   3.714852
    12  H    4.660711   4.368115   5.099250   5.550065   3.749588
    13  H    5.662939   5.652931   6.029316   6.489719   4.418235
    14  S    6.148166   5.918508   6.850128   6.763673   5.013959
    15  C    4.308890   4.776684   4.570345   4.966206   2.859034
    16  O    4.106044   4.652277   4.074177   4.864453   2.887703
    17  N    5.440289   5.982106   5.727912   5.953960   3.948878
    18  H    5.882721   6.352828   6.322585   6.314224   4.362015
    19  C    6.304567   6.973061   6.392613   6.795120   4.910596
    20  H    5.948968   6.667199   5.860047   6.493624   4.694000
    21  H    7.210556   7.801248   7.288419   7.768930   5.800983
    22  H    6.680613   7.439948   6.806681   7.013950   5.310574
    23  C    7.539014   7.836351   8.391148   7.489149   6.312161
    24  H    8.434379   8.674134   9.330896   8.329141   7.275642
    25  H    7.306803   7.733751   8.117030   7.148643   6.120494
    26  H    7.866765   8.183875   8.643291   7.942221   6.520090
    27  C    6.475370   6.621668   7.401655   6.482876   5.335782
    28  O    5.512123   5.672937   6.386207   5.664894   4.273792
    29  N    6.854109   6.834527   7.866197   6.786982   5.927082
    30  H    7.770549   7.760492   8.793609   7.624364   6.883400
    31  C    6.362486   6.179522   7.407559   6.338856   5.595796
    32  H    5.325919   5.142290   6.389162   5.261362   4.680968
    33  C    6.592938   6.255677   7.566873   6.829289   5.756609
    34  H    7.416149   7.153252   8.352734   7.684777   6.431937
    35  H    7.085217   6.599690   8.066486   7.320555   6.425956
    36  C    5.487189   5.123741   6.378984   5.910984   4.612916
    37  O    4.530641   4.037980   5.445692   4.960596   3.908975
    38  C    7.383532   7.074294   8.462610   7.247191   6.853642
    39  O    8.395247   8.160988   9.477413   8.172328   7.832601
    40  N    7.373947   6.886882   8.443207   7.267593   7.066671
    41  H    6.689818   6.111016   7.733790   6.678289   6.449359
    42  C    8.559930   8.020839   9.623252   8.378769   8.387331
    43  H    8.513297   7.871968   9.543230   8.342703   8.514901
    44  H    8.845036   8.397533   9.920492   8.536444   8.696114
    45  H    9.406282   8.853814  10.465557   9.293740   9.133471
                    6          7          8          9         10
     6  O    0.000000
     7  N    2.226434   0.000000
     8  H    3.119871   1.010408   0.000000
     9  C    2.722463   1.467493   2.113660   0.000000
    10  H    2.885717   2.095609   2.650448   1.081161   0.000000
    11  C    4.216429   2.454615   2.544569   1.555287   2.183350
    12  H    4.508680   2.451258   2.209591   2.193932   2.978653
    13  H    4.750426   3.273453   3.507727   2.202076   2.851564
    14  S    5.478888   3.773965   3.624571   2.864280   2.789626
    15  C    2.623757   2.441366   3.320898   1.527690   2.128194
    16  O    2.684209   2.754569   3.623463   2.405720   3.195244
    17  N    3.409475   3.625539   4.491726   2.464468   2.576694
    18  H    3.862181   3.918859   4.690632   2.597884   2.334857
    19  C    4.181362   4.810085   5.728015   3.815554   4.001924
    20  H    3.985417   4.745546   5.681737   4.019111   4.418497
    21  H    5.180554   5.523967   6.367453   4.392988   4.610387
    22  H    4.389941   5.388171   6.344157   4.443813   4.411273
    23  C    5.913313   5.980742   6.380943   5.078571   4.027924
    24  H    6.923334   6.924030   7.239097   6.064944   5.008366
    25  H    5.551310   6.019565   6.531840   5.229967   4.192286
    26  H    6.087930   6.081535   6.539129   4.970069   4.011341
    27  C    5.200264   4.871196   5.110859   4.134799   3.075411
    28  O    4.203140   3.713860   4.023213   2.906683   1.850776
    29  N    5.983453   5.432322   5.447718   4.938037   3.947071
    30  H    6.880604   6.444212   6.458335   5.941070   4.930098
    31  C    5.882555   5.018085   4.836976   4.753170   3.900656
    32  H    5.044160   4.229021   4.031783   4.235743   3.464828
    33  C    6.230285   4.837633   4.492714   4.428265   3.806791
    34  H    6.782578   5.467327   5.236159   4.786028   4.118186
    35  H    7.031220   5.487571   4.970138   5.256476   4.750293
    36  C    5.225436   3.531513   3.130809   3.183535   2.839624
    37  O    4.725416   2.912774   2.280071   3.101144   2.961272
    38  C    7.224423   6.337119   6.006579   6.252472   5.457742
    39  O    8.076781   7.389437   7.139041   7.212967   6.330483
    40  N    7.631491   6.517874   5.999314   6.660056   6.027596
    41  H    7.139154   5.838581   5.221000   6.097550   5.597572
    42  C    8.968325   7.891293   7.326879   8.097197   7.472303
    43  H    9.206653   8.039762   7.379492   8.411116   7.896219
    44  H    9.172171   8.338698   7.861335   8.554437   7.849354
    45  H    9.707865   8.525437   7.953153   8.594642   7.959696
                   11         12         13         14         15
    11  C    0.000000
    12  H    1.092445   0.000000
    13  H    1.093678   1.757541   0.000000
    14  S    1.842783   2.436316   2.347886   0.000000
    15  C    2.537329   3.178339   2.539565   4.004678   0.000000
    16  O    3.257393   3.581444   3.165037   4.950205   1.208664
    17  N    3.299297   4.168044   3.064307   4.360419   1.335411
    18  H    3.311214   4.320920   3.156895   3.937704   2.027685
    19  C    4.579064   5.361789   4.142550   5.708698   2.417539
    20  H    4.831272   5.435053   4.416089   6.218934   2.495845
    21  H    4.832541   5.636118   4.177322   5.838750   3.084724
    22  H    5.379478   6.216509   5.052093   6.352918   3.159933
    23  C    5.701918   6.645074   6.091027   5.008762   5.563298
    24  H    6.580655   7.494408   6.988081   5.668715   6.629036
    25  H    6.109105   7.038935   6.506044   5.702099   5.538688
    26  H    5.449265   6.471382   5.650872   4.769927   5.277904
    27  C    4.687117   5.509203   5.286896   3.929463   4.982839
    28  O    3.547905   4.383599   4.181219   3.117525   3.813176
    29  N    5.333240   5.991292   6.067874   4.325441   6.011759
    30  H    6.321644   6.992656   7.016063   5.212584   6.957017
    31  C    5.025636   5.499650   5.892329   4.018044   6.028786
    32  H    4.715558   5.080695   5.679595   4.092520   5.544976
    33  C    4.179129   4.563750   4.994850   2.804530   5.808942
    34  H    4.406048   4.946891   5.030624   2.770628   6.022686
    35  H    4.860662   5.047107   5.700292   3.463606   6.701520
    36  C    2.802861   3.077288   3.727399   1.801058   4.646423
    37  O    2.971782   2.920300   4.038581   2.672996   4.628187
    38  C    6.436592   6.771815   7.339322   5.313227   7.581767
    39  O    7.451639   7.874917   8.295207   6.252009   8.452118
    40  N    6.719047   6.844175   7.690897   5.663263   8.094230
    41  H    6.084512   6.086316   7.092593   5.160410   7.580419
    42  C    8.126178   8.196343   9.095680   7.021773   9.535533
    43  H    8.405815   8.336732   9.411843   7.426358   9.883792
    44  H    8.748608   8.889104   9.723192   7.702381   9.930103
    45  H    8.471629   8.571579   9.378440   7.179386  10.037026
                   16         17         18         19         20
    16  O    0.000000
    17  N    2.189497   0.000000
    18  H    3.092645   1.010373   0.000000
    19  C    2.657213   1.448574   2.146277   0.000000
    20  H    2.208359   2.083052   2.999441   1.089665   0.000000
    21  H    3.336264   2.082509   2.550695   1.089400   1.779385
    22  H    3.467308   2.082957   2.480850   1.090324   1.779526
    23  C    6.713198   4.998215   4.089847   5.976007   6.854217
    24  H    7.787968   6.067536   5.137536   7.025941   7.926480
    25  H    6.604798   4.938240   4.135877   5.778936   6.602654
    26  H    6.446641   4.532108   3.552977   5.417717   6.382456
    27  C    6.127320   4.776892   3.968462   6.008522   6.755299
    28  O    4.950482   3.768468   3.070772   5.101329   5.762631
    29  N    7.115426   5.979606   5.216801   7.269892   7.964201
    30  H    8.073856   6.825937   6.010835   8.055233   8.799598
    31  C    7.057705   6.241599   5.593093   7.617802   8.204984
    32  H    6.467848   5.935772   5.435962   7.314212   7.777061
    33  C    6.829290   6.112139   5.492003   7.538311   8.115928
    34  H    7.119356   6.118914   5.382336   7.489838   8.179265
    35  H    7.654671   7.105081   6.529728   8.541459   9.073206
    36  C    5.564396   5.178716   4.750372   6.622354   7.066526
    37  O    5.361875   5.414879   5.175252   6.840141   7.117200
    38  C    8.567945   7.841058   7.194539   9.215598   9.787182
    39  O    9.484420   8.566538   7.842029   9.884363  10.527907
    40  N    8.981514   8.540026   7.992025   9.954495  10.429558
    41  H    8.395114   8.157129   7.698491   9.588916   9.988028
    42  C   10.405159   9.982315   9.421633  11.391677  11.867554
    43  H   10.665571  10.455556   9.975744  11.875575  12.270846
    44  H   10.809738  10.312528   9.732032  11.683113  12.174205
    45  H   10.959343  10.416736   9.794747  11.832272  12.369040
                   21         22         23         24         25
    21  H    0.000000
    22  H    1.780131   0.000000
    23  C    6.374954   5.720347   0.000000
    24  H    7.373736   6.742545   1.090929   0.000000
    25  H    6.303931   5.362983   1.089712   1.780116   0.000000
    26  H    5.661266   5.199359   1.089570   1.780444   1.780113
    27  C    6.485137   5.978514   1.522585   2.148213   2.147150
    28  O    5.620445   5.225202   2.383757   3.250275   2.785159
    29  N    7.753702   7.280023   2.473388   2.561822   3.099964
    30  H    8.512360   7.978692   2.639478   2.291975   3.262206
    31  C    8.129873   7.756161   3.539687   3.711407   4.106931
    32  H    7.936907   7.475853   3.980571   4.358043   4.318838
    33  C    7.890044   7.882967   4.304961   4.561481   5.073417
    34  H    7.715773   7.812450   3.989229   4.143901   4.915170
    35  H    8.880501   8.929124   5.300384   5.438211   6.072555
    36  C    6.995490   7.116942   4.787902   5.336541   5.413556
    37  O    7.341908   7.354155   5.492798   6.100331   5.940498
    38  C    9.732708   9.329291   4.725497   4.584290   5.268450
    39  O   10.384432   9.891883   4.783954   4.374679   5.308467
    40  N   10.487109  10.165250   5.962065   5.895184   6.482946
    41  H   10.126293   9.888760   6.207539   6.304805   6.716761
    42  C   11.926126  11.577180   7.134198   6.915267   7.640122
    43  H   12.436508  12.117467   8.000986   7.867426   8.469899
    44  H   12.267822  11.772011   7.128485   6.827658   7.529805
    45  H   12.285372  12.037802   7.384703   7.064259   8.006152
                   26         27         28         29         30
    26  H    0.000000
    27  C    2.147496   0.000000
    28  O    2.634424   1.228272   0.000000
    29  N    3.240084   1.335838   2.227567   0.000000
    30  H    3.491617   2.051744   3.147730   1.026281   0.000000
    31  C    4.216242   2.164476   2.549226   1.153214   1.882163
    32  H    4.674690   2.533815   2.520415   1.933837   2.745169
    33  C    4.625238   2.929375   2.888042   2.371485   3.089303
    34  H    4.136302   2.874044   3.010753   2.482416   3.031222
    35  H    5.657133   3.947326   3.958662   3.167935   3.700962
    36  C    4.950012   3.367559   2.731532   3.305002   4.228536
    37  O    5.771066   4.012413   3.268369   3.897921   4.843261
    38  C    5.499520   3.578226   4.140706   2.287937   2.315228
    39  O    5.627405   3.965873   4.799840   2.643844   2.152243
    40  N    6.689616   4.691414   5.021668   3.490756   3.644600
    41  H    6.855979   4.804175   4.882778   3.774962   4.170651
    42  C    7.906626   5.981748   6.421293   4.705603   4.624794
    43  H    8.759863   6.758422   7.053947   5.542920   5.579857
    44  H    7.997731   6.111485   6.678533   4.815633   4.575615
    45  H    8.082957   6.309514   6.820728   5.013727   4.829349
                   31         32         33         34         35
    31  C    0.000000
    32  H    1.110507   0.000000
    33  C    1.650599   2.181900   0.000000
    34  H    2.236751   3.022742   1.094243   0.000000
    35  H    2.274455   2.745994   1.093708   1.768204   0.000000
    36  C    2.615522   2.530194   1.509309   2.174751   2.110606
    37  O    3.038890   2.506685   2.378536   3.277522   2.699850
    38  C    1.603947   2.190306   2.564329   3.115213   2.501949
    39  O    2.466755   3.178462   3.529566   3.798091   3.506055
    40  N    2.545166   2.750579   2.993255   3.752111   2.481625
    41  H    2.668692   2.595805   2.766971   3.703146   2.181323
    42  C    3.897107   4.140231   4.334685   4.970598   3.669898
    43  H    4.618203   4.662641   4.911679   5.660760   4.149403
    44  H    4.178751   4.401689   4.958357   5.554743   4.466764
    45  H    4.296709   4.759597   4.493596   4.934787   3.724878
                   36         37         38         39         40
    36  C    0.000000
    37  O    1.218121   0.000000
    38  C    3.776011   4.037452   0.000000
    39  O    4.857809   5.220891   1.228278   0.000000
    40  N    3.980181   3.976636   1.335405   2.218003   0.000000
    41  H    3.418038   3.215591   2.027667   3.119119   1.010134
    42  C    5.371300   5.335677   2.417917   2.686484   1.448624
    43  H    5.732071   5.503390   3.296531   3.730411   2.082796
    44  H    6.037162   5.989197   2.631351   2.513203   2.083104
    45  H    5.672575   5.823964   2.818066   2.877668   2.082891
                   41         42         43         44         45
    41  H    0.000000
    42  C    2.145652   0.000000
    43  H    2.342042   1.089236   0.000000
    44  H    2.910583   1.090136   1.779688   0.000000
    45  H    2.774072   1.090043   1.779594   1.779688   0.000000
 Stoichiometry    C13H22N4O5S
 Framework group  C1[X(C13H22N4O5S)]
 Deg. of freedom   129
 Full point group                 C1      NOp   1
 Largest Abelian subgroup         C1      NOp   1
 Largest concise Abelian subgroup C1      NOp   1
                         Standard orientation:                         
 ---------------------------------------------------------------------
 Center     Atomic      Atomic             Coordinates (Angstroms)
 Number     Number       Type             X           Y           Z
 ---------------------------------------------------------------------
      1          6           0       -2.325480    3.513547   -1.644829
      2          1           0       -1.708264    4.067529   -0.937217
      3          1           0       -3.323465    3.950035   -1.676172
      4          1           0       -1.876271    3.564071   -2.636690
      5          6           0       -2.421652    2.060201   -1.205668
      6          8           0       -2.886691    1.220428   -1.972754
      7          7           0       -1.999597    1.706120    0.010722
      8          1           0       -1.371795    2.303353    0.530436
      9          6           0       -2.077850    0.312249    0.462978
     10          1           0       -1.337972   -0.281185   -0.055989
     11          6           0       -1.828111    0.275068    1.997633
     12          1           0       -1.880440    1.280446    2.421794
     13          1           0       -2.584616   -0.327540    2.508216
     14         16           0       -0.244954   -0.523672    2.499109
     15          6           0       -3.458205   -0.248281    0.124951
     16          8           0       -4.447339    0.444028    0.068461
     17          7           0       -3.576309   -1.556077   -0.118040
     18          1           0       -2.752265   -2.138893   -0.071877
     19          6           0       -4.866274   -2.129716   -0.442533
     20          1           0       -5.600177   -1.332501   -0.557446
     21          1           0       -5.178303   -2.798176    0.359085
     22          1           0       -4.790221   -2.689900   -1.374851
     23          6           0        0.895758   -3.301299   -1.509789
     24          1           0        1.853940   -3.812449   -1.613423
     25          1           0        0.430614   -3.200534   -2.490074
     26          1           0        0.244454   -3.879543   -0.855114
     27          6           0        1.120276   -1.919553   -0.910927
     28          8           0        0.161835   -1.270444   -0.500194
     29          7           0        2.358639   -1.424348   -0.835486
     30          1           0        3.154003   -1.976183   -1.176260
     31          6           0        2.547429   -0.379066   -0.386435
     32          1           0        1.961644    0.468002   -0.801835
     33          6           0        2.244172   -0.268926    1.232324
     34          1           0        2.277778   -1.283192    1.641594
     35          1           0        3.024745    0.317289    1.725532
     36          6           0        0.927836    0.416534    1.506947
     37          8           0        0.702843    1.536564    1.084183
     38          6           0        4.090639    0.037047   -0.520594
     39          8           0        4.898487   -0.722037   -1.049592
     40          7           0        4.499774    1.219691   -0.054475
     41          1           0        3.825937    1.834865    0.378971
     42          6           0        5.889155    1.613969   -0.167067
     43          1           0        5.980701    2.682016    0.026140
     44          1           0        6.248843    1.394010   -1.172372
     45          1           0        6.483603    1.060574    0.559967
 ---------------------------------------------------------------------
 Rotational constants (GHZ):           0.3661006           0.1358710           0.1262297
 Leave Link  202 at Tue Jun  9 13:53:07 2026, MaxMem=    67108864 cpu:               0.1 elap:               0.0
 (Enter /software/local/apps/gaussian-16.0/g16/l301.exe)
 Standard basis: 6-31G(d) (6D, 7F)
 Ernie: Thresh=  0.10000D-02 Tol=  0.10000D-05 Strict=F.
 There are   393 symmetry adapted cartesian basis functions of A   symmetry.
 There are   393 symmetry adapted basis functions of A   symmetry.
   393 basis functions,   756 primitive gaussians,   393 cartesian basis functions
    92 alpha electrons       92 beta electrons
       nuclear repulsion energy      2282.2147057813 Hartrees.
 IExCor=    0 DFT=F Ex=HF Corr=None ExCW=0 ScaHFX=  1.000000
 ScaDFX=  1.000000  1.000000  1.000000  1.000000 ScalE2=  1.000000  1.000000
 IRadAn=      5 IRanWt=     -1 IRanGd=            0 ICorTp=0 IEmpDi=  4
 NAtoms=   45 NActive=   45 NUniq=   45 SFac= 1.00D+00 NAtFMM=   60 NAOKFM=F Big=F
 Integral buffers will be    131072 words long.
 Raffenetti 1 integral format.
 Two-electron integral symmetry is turned on.
 Leave Link  301 at Tue Jun  9 13:53:08 2026, MaxMem=    67108864 cpu:               0.8 elap:               0.1
 (Enter /software/local/apps/gaussian-16.0/g16/l302.exe)
 NPDir=0 NMtPBC=     1 NCelOv=     1 NCel=       1 NClECP=     1 NCelD=      1
         NCelK=      1 NCelE2=     1 NClLst=     1 CellRange=     0.0.
 One-electron integrals computed using PRISM.
 One-electron integral symmetry used in STVInt
 NBasis=   393 RedAO= T EigKep=  1.22D-03  NBF=   393
 NBsUse=   393 1.00D-06 EigRej= -1.00D+00 NBFU=   393
 Leave Link  302 at Tue Jun  9 13:53:08 2026, MaxMem=    67108864 cpu:               3.6 elap:               0.2
 (Enter /software/local/apps/gaussian-16.0/g16/l303.exe)
 DipDrv:  MaxL=1.
 Leave Link  303 at Tue Jun  9 13:53:08 2026, MaxMem=    67108864 cpu:               0.6 elap:               0.1
 (Enter /software/local/apps/gaussian-16.0/g16/l401.exe)
 ExpMin= 1.17D-01 ExpMax= 2.19D+04 ExpMxC= 3.30D+03 IAcc=3 IRadAn=         5 AccDes= 0.00D+00
 Harris functional with IExCor=  205 and IRadAn=       5 diagonalized for initial guess.
 HarFok:  IExCor=  205 AccDes= 0.00D+00 IRadAn=         5 IDoV= 1 UseB2=F ITyADJ=14
 ICtDFT=  3500011 ScaDFX=  1.000000  1.000000  1.000000  1.000000
 FoFCou: FMM=F IPFlag=           0 FMFlag=      100000 FMFlg1=           0
         NFxFlg=           0 DoJE=T BraDBF=F KetDBF=T FulRan=T
         wScrn=  0.000000 ICntrl=       500 IOpCl=  0 I1Cent=   200000004 NGrid=           0
         NMat0=    1 NMatS0=      1 NMatT0=    0 NMatD0=    1 NMtDS0=    0 NMtDT0=    0
 Petite list used in FoFCou.
 Harris En= -1495.59368287686    
 JPrj=0 DoOrth=F DoCkMO=F.
 Leave Link  401 at Tue Jun  9 13:53:09 2026, MaxMem=    67108864 cpu:              19.0 elap:               1.3
 (Enter /software/local/apps/gaussian-16.0/g16/l502.exe)
 Integral symmetry usage will be decided dynamically.
 Closed shell SCF:
 Using DIIS extrapolation, IDIIS=  1040.
 NGot=    67108864 LenX=    66788194 LenY=    66633304
 Requested convergence on RMS density matrix=1.00D-08 within 128 cycles.
 Requested convergence on MAX density matrix=1.00D-06.
 Requested convergence on             energy=1.00D-06.
 No special actions if energy rises.
 Fock matrices will be formed incrementally for  20 cycles.
 Integral accuracy reduced to 1.0D-05 until final iterations.

 Cycle   1  Pass 0  IDiag  1:
 FoFJK:  IHMeth= 1 ICntrl=       0 DoSepK=F KAlg= 0 I1Cent=           0 FoldK=F
 IRaf= 750000000 NMat=       1 IRICut=       1 DoRegI=T DoRafI=F ISym2E= 0 IDoP0=0 IntGTp=1.
 FoFCou: FMM=F IPFlag=           0 FMFlag=      100000 FMFlg1=           0
         NFxFlg=           0 DoJE=F BraDBF=F KetDBF=F FulRan=T
         wScrn=  0.000000 ICntrl=         0 IOpCl=  0 I1Cent=           0 NGrid=           0
         NMat0=    1 NMatS0=      1 NMatT0=    0 NMatD0=    1 NMtDS0=    0 NMtDT0=    0
 Symmetry not used in FoFCou.
 E= -1493.69220394938    
 DIIS: error= 6.99D-02 at cycle   1 NSaved=   1.
 NSaved= 1 IEnMin= 1 EnMin= -1493.69220394938     IErMin= 1 ErrMin= 6.99D-02
 ErrMax= 6.99D-02  0.00D+00 EMaxC= 1.00D-01 BMatC= 1.69D+00 BMatP= 1.69D+00
 IDIUse=3 WtCom= 3.01D-01 WtEn= 6.99D-01
 Coeff-Com:  0.100D+01
 Coeff-En:   0.100D+01
 Coeff:      0.100D+01
 Gap=     0.554 Goal=   None    Shift=    0.000
 GapD=    0.554 DampG=2.000 DampE=0.500 DampFc=1.0000 IDamp=-1.
 RMSDP=3.50D-03 MaxDP=1.20D-01              OVMax= 1.42D-01

 Cycle   2  Pass 0  IDiag  1:
 RMSU=  3.47D-03    CP:  9.73D-01
 E= -1494.47236857820     Delta-E=       -0.780164628823 Rises=F Damp=F
 DIIS: error= 1.42D-02 at cycle   2 NSaved=   2.
 NSaved= 2 IEnMin= 2 EnMin= -1494.47236857820     IErMin= 2 ErrMin= 1.42D-02
 ErrMax= 1.42D-02  0.00D+00 EMaxC= 1.00D-01 BMatC= 2.37D-01 BMatP= 1.69D+00
 IDIUse=3 WtCom= 8.58D-01 WtEn= 1.42D-01
 Coeff-Com:  0.204D+00 0.796D+00
 Coeff-En:   0.000D+00 0.100D+01
 Coeff:      0.175D+00 0.825D+00
 Gap=     0.560 Goal=   None    Shift=    0.000
 RMSDP=1.54D-03 MaxDP=8.12D-02 DE=-7.80D-01 OVMax= 5.58D-02

 Cycle   3  Pass 0  IDiag  1:
 RMSU=  1.24D-03    CP:  9.76D-01  7.38D-01
 E= -1494.63264006388     Delta-E=       -0.160271485677 Rises=F Damp=F
 DIIS: error= 5.84D-03 at cycle   3 NSaved=   3.
 NSaved= 3 IEnMin= 3 EnMin= -1494.63264006388     IErMin= 3 ErrMin= 5.84D-03
 ErrMax= 5.84D-03  0.00D+00 EMaxC= 1.00D-01 BMatC= 3.05D-02 BMatP= 2.37D-01
 IDIUse=3 WtCom= 9.42D-01 WtEn= 5.84D-02
 Coeff-Com: -0.178D-01 0.232D+00 0.785D+00
 Coeff-En:   0.000D+00 0.000D+00 0.100D+01
 Coeff:     -0.168D-01 0.219D+00 0.798D+00
 Gap=     0.478 Goal=   None    Shift=    0.000
 RMSDP=3.94D-04 MaxDP=2.47D-02 DE=-1.60D-01 OVMax= 2.79D-02

 Cycle   4  Pass 0  IDiag  1:
 RMSU=  2.80D-04    CP:  9.75D-01  8.08D-01  8.94D-01
 E= -1494.65526368650     Delta-E=       -0.022623622622 Rises=F Damp=F
 DIIS: error= 1.32D-03 at cycle   4 NSaved=   4.
 NSaved= 4 IEnMin= 4 EnMin= -1494.65526368650     IErMin= 4 ErrMin= 1.32D-03
 ErrMax= 1.32D-03  0.00D+00 EMaxC= 1.00D-01 BMatC= 1.88D-03 BMatP= 3.05D-02
 IDIUse=3 WtCom= 9.87D-01 WtEn= 1.32D-02
 Coeff-Com: -0.116D-01 0.365D-01 0.254D+00 0.721D+00
 Coeff-En:   0.000D+00 0.000D+00 0.000D+00 0.100D+01
 Coeff:     -0.114D-01 0.361D-01 0.250D+00 0.725D+00
 Gap=     0.466 Goal=   None    Shift=    0.000
 RMSDP=1.23D-04 MaxDP=6.00D-03 DE=-2.26D-02 OVMax= 5.28D-03

 Cycle   5  Pass 0  IDiag  1:
 RMSU=  8.90D-05    CP:  9.74D-01  8.09D-01  9.59D-01  9.06D-01
 E= -1494.65713356057     Delta-E=       -0.001869874072 Rises=F Damp=F
 DIIS: error= 4.68D-04 at cycle   5 NSaved=   5.
 NSaved= 5 IEnMin= 5 EnMin= -1494.65713356057     IErMin= 5 ErrMin= 4.68D-04
 ErrMax= 4.68D-04  0.00D+00 EMaxC= 1.00D-01 BMatC= 1.07D-04 BMatP= 1.88D-03
 IDIUse=3 WtCom= 9.95D-01 WtEn= 4.68D-03
 Coeff-Com:  0.266D-02-0.245D-01-0.972D-01-0.659D-01 0.119D+01
 Coeff-En:   0.000D+00 0.000D+00 0.000D+00 0.000D+00 0.100D+01
 Coeff:      0.265D-02-0.244D-01-0.968D-01-0.656D-01 0.118D+01
 Gap=     0.468 Goal=   None    Shift=    0.000
 RMSDP=7.37D-05 MaxDP=2.93D-03 DE=-1.87D-03 OVMax= 5.67D-03

 Cycle   6  Pass 0  IDiag  1:
 RMSU=  3.33D-05    CP:  9.74D-01  8.09D-01  9.92D-01  1.05D+00  1.35D+00
 E= -1494.65746992049     Delta-E=       -0.000336359912 Rises=F Damp=F
 DIIS: error= 1.62D-04 at cycle   6 NSaved=   6.
 NSaved= 6 IEnMin= 6 EnMin= -1494.65746992049     IErMin= 6 ErrMin= 1.62D-04
 ErrMax= 1.62D-04  0.00D+00 EMaxC= 1.00D-01 BMatC= 2.18D-05 BMatP= 1.07D-04
 IDIUse=3 WtCom= 9.98D-01 WtEn= 1.62D-03
 Coeff-Com:  0.187D-02-0.101D-01-0.497D-01-0.110D+00 0.283D+00 0.885D+00
 Coeff-En:   0.000D+00 0.000D+00 0.000D+00 0.000D+00 0.000D+00 0.100D+01
 Coeff:      0.186D-02-0.101D-01-0.496D-01-0.110D+00 0.282D+00 0.886D+00
 Gap=     0.469 Goal=   None    Shift=    0.000
 RMSDP=2.67D-05 MaxDP=9.85D-04 DE=-3.36D-04 OVMax= 2.26D-03

 Cycle   7  Pass 0  IDiag  1:
 RMSU=  1.13D-05    CP:  9.74D-01  8.09D-01  1.00D+00  1.08D+00  1.56D+00
                    CP:  1.18D+00
 E= -1494.65751978548     Delta-E=       -0.000049864993 Rises=F Damp=F
 DIIS: error= 5.48D-05 at cycle   7 NSaved=   7.
 NSaved= 7 IEnMin= 7 EnMin= -1494.65751978548     IErMin= 7 ErrMin= 5.48D-05
 ErrMax= 5.48D-05  0.00D+00 EMaxC= 1.00D-01 BMatC= 2.95D-06 BMatP= 2.18D-05
 IDIUse=1 WtCom= 1.00D+00 WtEn= 0.00D+00
 Coeff-Com: -0.457D-03 0.419D-02 0.191D-01 0.299D-02-0.175D+00-0.576D-01
 Coeff-Com:  0.121D+01
 Coeff:     -0.457D-03 0.419D-02 0.191D-01 0.299D-02-0.175D+00-0.576D-01
 Coeff:      0.121D+01
 Gap=     0.469 Goal=   None    Shift=    0.000
 RMSDP=1.43D-05 MaxDP=4.83D-04 DE=-4.99D-05 OVMax= 1.20D-03

 Cycle   8  Pass 0  IDiag  1:
 RMSU=  5.03D-06    CP:  9.74D-01  8.08D-01  1.00D+00  1.09D+00  1.66D+00
                    CP:  1.41D+00  1.43D+00
 E= -1494.65752962230     Delta-E=       -0.000009836824 Rises=F Damp=F
 DIIS: error= 3.32D-05 at cycle   8 NSaved=   8.
 NSaved= 8 IEnMin= 8 EnMin= -1494.65752962230     IErMin= 8 ErrMin= 3.32D-05
 ErrMax= 3.32D-05  0.00D+00 EMaxC= 1.00D-01 BMatC= 5.51D-07 BMatP= 2.95D-06
 IDIUse=1 WtCom= 1.00D+00 WtEn= 0.00D+00
 Coeff-Com: -0.347D-03 0.237D-02 0.117D-01 0.124D-01-0.709D-01-0.141D+00
 Coeff-Com:  0.303D+00 0.882D+00
 Coeff:     -0.347D-03 0.237D-02 0.117D-01 0.124D-01-0.709D-01-0.141D+00
 Coeff:      0.303D+00 0.882D+00
 Gap=     0.469 Goal=   None    Shift=    0.000
 RMSDP=4.24D-06 MaxDP=1.55D-04 DE=-9.84D-06 OVMax= 3.24D-04

 Initial convergence to 1.0D-05 achieved.  Increase integral accuracy.
 Cycle   9  Pass 1  IDiag  1:
 E= -1494.65754262847     Delta-E=       -0.000013006167 Rises=F Damp=F
 DIIS: error= 2.78D-05 at cycle   1 NSaved=   1.
 NSaved= 1 IEnMin= 1 EnMin= -1494.65754262847     IErMin= 1 ErrMin= 2.78D-05
 ErrMax= 2.78D-05  0.00D+00 EMaxC= 1.00D-01 BMatC= 4.76D-07 BMatP= 4.76D-07
 IDIUse=1 WtCom= 1.00D+00 WtEn= 0.00D+00
 Coeff-Com:  0.100D+01
 Coeff:      0.100D+01
 Gap=     0.469 Goal=   None    Shift=    0.000
 RMSDP=4.24D-06 MaxDP=1.55D-04 DE=-1.30D-05 OVMax= 8.65D-05

 Cycle  10  Pass 1  IDiag  1:
 RMSU=  9.80D-06    CP:  1.00D+00
 E= -1494.65754306177     Delta-E=       -0.000000433301 Rises=F Damp=F
 DIIS: error= 6.09D-06 at cycle   2 NSaved=   2.
 NSaved= 2 IEnMin= 2 EnMin= -1494.65754306177     IErMin= 2 ErrMin= 6.09D-06
 ErrMax= 6.09D-06  0.00D+00 EMaxC= 1.00D-01 BMatC= 2.82D-08 BMatP= 4.76D-07
 IDIUse=1 WtCom= 1.00D+00 WtEn= 0.00D+00
 Coeff-Com:  0.210D-01 0.979D+00
 Coeff:      0.210D-01 0.979D+00
 Gap=     0.469 Goal=   None    Shift=    0.000
 RMSDP=9.04D-07 MaxDP=3.91D-05 DE=-4.33D-07 OVMax= 5.44D-05

 Cycle  11  Pass 1  IDiag  1:
 RMSU=  7.27D-07    CP:  1.00D+00  1.05D+00
 E= -1494.65754311058     Delta-E=       -0.000000048813 Rises=F Damp=F
 DIIS: error= 4.40D-06 at cycle   3 NSaved=   3.
 NSaved= 3 IEnMin= 3 EnMin= -1494.65754311058     IErMin= 3 ErrMin= 4.40D-06
 ErrMax= 4.40D-06  0.00D+00 EMaxC= 1.00D-01 BMatC= 1.41D-08 BMatP= 2.82D-08
 IDIUse=1 WtCom= 1.00D+00 WtEn= 0.00D+00
 Coeff-Com: -0.447D-01 0.361D+00 0.684D+00
 Coeff:     -0.447D-01 0.361D+00 0.684D+00
 Gap=     0.469 Goal=   None    Shift=    0.000
 RMSDP=3.55D-07 MaxDP=1.82D-05 DE=-4.88D-08 OVMax= 2.27D-05

 Cycle  12  Pass 1  IDiag  1:
 RMSU=  3.36D-07    CP:  1.00D+00  1.06D+00  1.08D+00
 E= -1494.65754312912     Delta-E=       -0.000000018536 Rises=F Damp=F
 DIIS: error= 2.06D-06 at cycle   4 NSaved=   4.
 NSaved= 4 IEnMin= 4 EnMin= -1494.65754312912     IErMin= 4 ErrMin= 2.06D-06
 ErrMax= 2.06D-06  0.00D+00 EMaxC= 1.00D-01 BMatC= 2.18D-09 BMatP= 1.41D-08
 IDIUse=1 WtCom= 1.00D+00 WtEn= 0.00D+00
 Coeff-Com:  0.150D-01-0.443D+00-0.408D+00 0.184D+01
 Coeff:      0.150D-01-0.443D+00-0.408D+00 0.184D+01
 Gap=     0.469 Goal=   None    Shift=    0.000
 RMSDP=5.04D-07 MaxDP=2.06D-05 DE=-1.85D-08 OVMax= 3.98D-05

 Cycle  13  Pass 1  IDiag  1:
 RMSU=  1.16D-07    CP:  1.00D+00  1.07D+00  1.58D+00  1.97D+00
 E= -1494.65754313929     Delta-E=       -0.000000010166 Rises=F Damp=F
 DIIS: error= 3.53D-07 at cycle   5 NSaved=   5.
 NSaved= 5 IEnMin= 5 EnMin= -1494.65754313929     IErMin= 5 ErrMin= 3.53D-07
 ErrMax= 3.53D-07  0.00D+00 EMaxC= 1.00D-01 BMatC= 1.33D-10 BMatP= 2.18D-09
 IDIUse=1 WtCom= 1.00D+00 WtEn= 0.00D+00
 Coeff-Com:  0.723D-02-0.155D+00-0.167D+00 0.563D+00 0.751D+00
 Coeff:      0.723D-02-0.155D+00-0.167D+00 0.563D+00 0.751D+00
 Gap=     0.469 Goal=   None    Shift=    0.000
 RMSDP=5.95D-08 MaxDP=2.82D-06 DE=-1.02D-08 OVMax= 4.49D-06

 Cycle  14  Pass 1  IDiag  1:
 RMSU=  3.33D-08    CP:  1.00D+00  1.07D+00  1.62D+00  2.08D+00  1.07D+00
 E= -1494.65754313955     Delta-E=       -0.000000000263 Rises=F Damp=F
 DIIS: error= 1.42D-07 at cycle   6 NSaved=   6.
 NSaved= 6 IEnMin= 6 EnMin= -1494.65754313955     IErMin= 6 ErrMin= 1.42D-07
 ErrMax= 1.42D-07  0.00D+00 EMaxC= 1.00D-01 BMatC= 1.19D-11 BMatP= 1.33D-10
 IDIUse=1 WtCom= 1.00D+00 WtEn= 0.00D+00
 Coeff-Com: -0.182D-02 0.515D-01 0.476D-01-0.223D+00-0.306D-02 0.113D+01
 Coeff:     -0.182D-02 0.515D-01 0.476D-01-0.223D+00-0.306D-02 0.113D+01
 Gap=     0.469 Goal=   None    Shift=    0.000
 RMSDP=2.83D-08 MaxDP=1.17D-06 DE=-2.63D-10 OVMax= 1.92D-06

 Cycle  15  Pass 1  IDiag  1:
 RMSU=  1.22D-08    CP:  1.00D+00  1.07D+00  1.63D+00  2.12D+00  1.22D+00
                    CP:  1.25D+00
 E= -1494.65754313956     Delta-E=       -0.000000000012 Rises=F Damp=F
 DIIS: error= 5.51D-08 at cycle   7 NSaved=   7.
 NSaved= 7 IEnMin= 7 EnMin= -1494.65754313956     IErMin= 7 ErrMin= 5.51D-08
 ErrMax= 5.51D-08  0.00D+00 EMaxC= 1.00D-01 BMatC= 1.93D-12 BMatP= 1.19D-11
 IDIUse=1 WtCom= 1.00D+00 WtEn= 0.00D+00
 Coeff-Com: -0.137D-02 0.327D-01 0.342D-01-0.125D+00-0.816D-01 0.283D+00
 Coeff-Com:  0.858D+00
 Coeff:     -0.137D-02 0.327D-01 0.342D-01-0.125D+00-0.816D-01 0.283D+00
 Coeff:      0.858D+00
 Gap=     0.469 Goal=   None    Shift=    0.000
 RMSDP=6.42D-09 MaxDP=2.86D-07 DE=-1.18D-11 OVMax= 4.64D-07

 SCF Done:  E(RHF) =  -1494.65754314     A.U. after   15 cycles
            NFock= 15  Conv=0.64D-08     -V/T= 2.0011
 KE= 1.492999966221D+03 PE=-8.085367495420D+03 EE= 2.815495280279D+03
 Leave Link  502 at Tue Jun  9 13:53:27 2026, MaxMem=    67108864 cpu:             284.8 elap:              18.0
 (Enter /software/local/apps/gaussian-16.0/g16/l601.exe)
 Copying SCF densities to generalized density rwf, IOpCl= 0 IROHF=0.
 SCF density gives NOpUse=  1 NOpAll=  1.

 **********************************************************************

            Population analysis using the SCF Density.

 **********************************************************************

 Orbital symmetries:
 BldTbl:  Degeneracy threshold= 1.00D-02
       Occupied  (A) (A) (A) (A) (A) (A) (A) (A) (A) (A) (A) (A)
                 (A) (A) (A) (A) (A) (A) (A) (A) (A) (A) (A) (A)
                 (A) (A) (A) (A) (A) (A) (A) (A) (A) (A) (A) (A)
                 (A) (A) (A) (A) (A) (A) (A) (A) (A) (A) (A) (A)
                 (A) (A) (A) (A) (A) (A) (A) (A) (A) (A) (A) (A)
                 (A) (A) (A) (A) (A) (A) (A) (A) (A) (A) (A) (A)
                 (A) (A) (A) (A) (A) (A) (A) (A) (A) (A) (A) (A)
                 (A) (A) (A) (A) (A) (A) (A) (A)
       Virtual   (A) (A) (A) (A) (A) (A) (A) (A) (A) (A) (A) (A)
                 (A) (A) (A) (A) (A) (A) (A) (A) (A) (A) (A) (A)
                 (A) (A) (A) (A) (A) (A) (A) (A) (A) (A) (A) (A)
                 (A) (A) (A) (A) (A) (A) (A) (A) (A) (A) (A) (A)
                 (A) (A) (A) (A) (A) (A) (A) (A) (A) (A) (A) (A)
                 (A) (A) (A) (A) (A) (A) (A) (A) (A) (A) (A) (A)
                 (A) (A) (A) (A) (A) (A) (A) (A) (A) (A) (A) (A)
                 (A) (A) (A) (A) (A) (A) (A) (A) (A) (A) (A) (A)
                 (A) (A) (A) (A) (A) (A) (A) (A) (A) (A) (A) (A)
                 (A) (A) (A) (A) (A) (A) (A) (A) (A) (A) (A) (A)
                 (A) (A) (A) (A) (A) (A) (A) (A) (A) (A) (A) (A)
                 (A) (A) (A) (A) (A) (A) (A) (A) (A) (A) (A) (A)
                 (A) (A) (A) (A) (A) (A) (A) (A) (A) (A) (A) (A)
                 (A) (A) (A) (A) (A) (A) (A) (A) (A) (A) (A) (A)
                 (A) (A) (A) (A) (A) (A) (A) (A) (A) (A) (A) (A)
                 (A) (A) (A) (A) (A) (A) (A) (A) (A) (A) (A) (A)
                 (A) (A) (A) (A) (A) (A) (A) (A) (A) (A) (A) (A)
                 (A) (A) (A) (A) (A) (A) (A) (A) (A) (A) (A) (A)
                 (A) (A) (A) (A) (A) (A) (A) (A) (A) (A) (A) (A)
                 (A) (A) (A) (A) (A) (A) (A) (A) (A) (A) (A) (A)
                 (A) (A) (A) (A) (A) (A) (A) (A) (A) (A) (A) (A)
                 (A) (A) (A) (A) (A) (A) (A) (A) (A) (A) (A) (A)
                 (A) (A) (A) (A) (A) (A) (A) (A) (A) (A) (A) (A)
                 (A) (A) (A) (A) (A) (A) (A) (A) (A) (A) (A) (A)
                 (A) (A) (A) (A) (A) (A) (A) (A) (A) (A) (A) (A)
                 (A)
 The electronic state is 1-A.
 Alpha  occ. eigenvalues --  -91.95837 -20.57780 -20.56122 -20.55357 -20.48313
 Alpha  occ. eigenvalues --  -20.48054 -15.61576 -15.61309 -15.56421 -15.56357
 Alpha  occ. eigenvalues --  -11.38543 -11.37966 -11.37765 -11.32040 -11.31741
 Alpha  occ. eigenvalues --  -11.30911 -11.27781 -11.27749 -11.26379 -11.26365
 Alpha  occ. eigenvalues --  -11.26268 -11.23690 -11.21687  -8.96950  -6.65238
 Alpha  occ. eigenvalues --   -6.65067  -6.64898  -1.44953  -1.40950  -1.40817
 Alpha  occ. eigenvalues --   -1.36379  -1.34841  -1.33889  -1.25381  -1.20892
 Alpha  occ. eigenvalues --   -1.20297  -1.08866  -1.07156  -1.03478  -1.00057
 Alpha  occ. eigenvalues --   -0.98277  -0.96107  -0.94651  -0.91976  -0.86503
 Alpha  occ. eigenvalues --   -0.84536  -0.82137  -0.78519  -0.78035  -0.76025
 Alpha  occ. eigenvalues --   -0.75424  -0.73036  -0.69680  -0.67672  -0.67207
 Alpha  occ. eigenvalues --   -0.66818  -0.66066  -0.65493  -0.64703  -0.64044
 Alpha  occ. eigenvalues --   -0.62876  -0.61745  -0.61521  -0.60972  -0.60201
 Alpha  occ. eigenvalues --   -0.59470  -0.59271  -0.58656  -0.57438  -0.56855
 Alpha  occ. eigenvalues --   -0.56146  -0.55824  -0.54773  -0.54525  -0.53753
 Alpha  occ. eigenvalues --   -0.53137  -0.52587  -0.51986  -0.51414  -0.50769
 Alpha  occ. eigenvalues --   -0.47497  -0.46238  -0.45825  -0.44431  -0.42074
 Alpha  occ. eigenvalues --   -0.41411  -0.39190  -0.38917  -0.38285  -0.36969
 Alpha  occ. eigenvalues --   -0.36053  -0.35012
 Alpha virt. eigenvalues --    0.11916   0.14938   0.17440   0.18292   0.19964
 Alpha virt. eigenvalues --    0.20889   0.22057   0.22661   0.23483   0.24400
 Alpha virt. eigenvalues --    0.25059   0.25458   0.26427   0.26688   0.27418
 Alpha virt. eigenvalues --    0.27960   0.28540   0.29106   0.29551   0.30677
 Alpha virt. eigenvalues --    0.31185   0.31236   0.31767   0.32576   0.34036
 Alpha virt. eigenvalues --    0.34898   0.34986   0.35582   0.35944   0.37251
 Alpha virt. eigenvalues --    0.37866   0.38636   0.39921   0.40681   0.41778
 Alpha virt. eigenvalues --    0.42467   0.44245   0.44886   0.46009   0.48101
 Alpha virt. eigenvalues --    0.50440   0.51306   0.52738   0.53599   0.54517
 Alpha virt. eigenvalues --    0.56379   0.58475   0.59490   0.60687   0.62159
 Alpha virt. eigenvalues --    0.62825   0.63836   0.66080   0.70089   0.71432
 Alpha virt. eigenvalues --    0.72749   0.73344   0.73857   0.75318   0.76224
 Alpha virt. eigenvalues --    0.76793   0.76985   0.77368   0.77589   0.78289
 Alpha virt. eigenvalues --    0.79142   0.79531   0.80468   0.82009   0.83727
 Alpha virt. eigenvalues --    0.84759   0.84890   0.85807   0.86427   0.88342
 Alpha virt. eigenvalues --    0.89617   0.89931   0.90456   0.91429   0.92729
 Alpha virt. eigenvalues --    0.94251   0.94412   0.95388   0.96382   0.97844
 Alpha virt. eigenvalues --    0.98285   0.98583   0.99953   1.00107   1.00601
 Alpha virt. eigenvalues --    1.02170   1.03625   1.04516   1.05220   1.05754
 Alpha virt. eigenvalues --    1.06094   1.06909   1.07230   1.07702   1.09301
 Alpha virt. eigenvalues --    1.09823   1.10766   1.12088   1.12427   1.13258
 Alpha virt. eigenvalues --    1.13590   1.14318   1.14697   1.15019   1.15265
 Alpha virt. eigenvalues --    1.16636   1.16989   1.17575   1.17876   1.18245
 Alpha virt. eigenvalues --    1.18625   1.19966   1.20493   1.21094   1.21674
 Alpha virt. eigenvalues --    1.21824   1.21984   1.22754   1.23126   1.23183
 Alpha virt. eigenvalues --    1.25103   1.25401   1.26344   1.27005   1.28326
 Alpha virt. eigenvalues --    1.28428   1.30021   1.30814   1.31659   1.31863
 Alpha virt. eigenvalues --    1.34133   1.35257   1.35608   1.37015   1.40307
 Alpha virt. eigenvalues --    1.41252   1.42896   1.44373   1.47054   1.50714
 Alpha virt. eigenvalues --    1.51255   1.52467   1.54579   1.55243   1.56076
 Alpha virt. eigenvalues --    1.57439   1.58063   1.59248   1.61464   1.62011
 Alpha virt. eigenvalues --    1.62834   1.64710   1.66145   1.68560   1.70118
 Alpha virt. eigenvalues --    1.71677   1.71844   1.73503   1.74845   1.76387
 Alpha virt. eigenvalues --    1.76761   1.78727   1.80659   1.81494   1.83592
 Alpha virt. eigenvalues --    1.85822   1.86562   1.89642   1.90835   1.92325
 Alpha virt. eigenvalues --    1.94083   1.96315   1.99019   2.00465   2.01983
 Alpha virt. eigenvalues --    2.03188   2.04142   2.04796   2.07581   2.08391
 Alpha virt. eigenvalues --    2.10367   2.10978   2.11711   2.13115   2.13493
 Alpha virt. eigenvalues --    2.14507   2.15194   2.15564   2.16137   2.16566
 Alpha virt. eigenvalues --    2.17468   2.18336   2.18873   2.20838   2.21396
 Alpha virt. eigenvalues --    2.22896   2.24552   2.25932   2.26798   2.28306
 Alpha virt. eigenvalues --    2.29591   2.31240   2.31718   2.32147   2.34408
 Alpha virt. eigenvalues --    2.36092   2.36393   2.37724   2.38412   2.41516
 Alpha virt. eigenvalues --    2.42817   2.43066   2.43684   2.46926   2.47580
 Alpha virt. eigenvalues --    2.48654   2.50785   2.52357   2.53935   2.55405
 Alpha virt. eigenvalues --    2.56282   2.57122   2.58234   2.59706   2.61988
 Alpha virt. eigenvalues --    2.62473   2.62806   2.64381   2.64694   2.66409
 Alpha virt. eigenvalues --    2.67338   2.68809   2.69205   2.71499   2.72733
 Alpha virt. eigenvalues --    2.72868   2.78117   2.78736   2.80701   2.83134
 Alpha virt. eigenvalues --    2.83338   2.84148   2.86560   2.87287   2.89299
 Alpha virt. eigenvalues --    2.94454   2.95235   2.95703   2.97463   2.99173
 Alpha virt. eigenvalues --    3.01343   3.02691   3.04825   3.06271   3.06780
 Alpha virt. eigenvalues --    3.12034   3.12575   3.15453   3.18236   3.20392
 Alpha virt. eigenvalues --    3.23319   3.28328   3.31715   3.32636   3.36378
 Alpha virt. eigenvalues --    3.39657   3.40443   3.43164   3.46286   3.51224
 Alpha virt. eigenvalues --    3.58113   3.61777   3.72599   4.32129   4.37614
 Alpha virt. eigenvalues --    4.38498   4.43851   4.45970   4.48830   4.51761
 Alpha virt. eigenvalues --    4.53905   4.56761   4.59479   4.61005   4.66213
 Alpha virt. eigenvalues --    4.68723   4.69756   4.75297   4.78344   4.81539
 Alpha virt. eigenvalues --    4.86888   4.88858   4.90622   4.96986   5.08707
 Alpha virt. eigenvalues --    5.18463
          Condensed to atoms (all electrons):
               1          2          3          4          5          6
     1  C    5.228383   0.369587   0.381527   0.382106   0.364724  -0.072880
     2  H    0.369587   0.555692  -0.022348  -0.024787  -0.044022   0.003081
     3  H    0.381527  -0.022348   0.473217  -0.018789  -0.024856  -0.000274
     4  H    0.382106  -0.024787  -0.018789   0.487772  -0.027638   0.001064
     5  C    0.364724  -0.044022  -0.024856  -0.027638   4.142561   0.569719
     6  O   -0.072880   0.003081  -0.000274   0.001064   0.569719   8.244648
     7  N   -0.098459   0.006818   0.000872   0.001960   0.285867  -0.107143
     8  H   -0.000016   0.001451   0.000020  -0.000047  -0.011877   0.002414
     9  C    0.005035   0.000027  -0.000129  -0.000105  -0.036782   0.012364
    10  H   -0.000005  -0.000011  -0.000005   0.000016   0.000191   0.003450
    11  C   -0.000052  -0.000027   0.000004   0.000000   0.004355   0.000535
    12  H   -0.000034   0.000003  -0.000000   0.000001   0.000115  -0.000006
    13  H    0.000002  -0.000000  -0.000000  -0.000000   0.000005   0.000007
    14  S    0.000003   0.000000  -0.000000  -0.000000  -0.000253   0.000001
    15  C   -0.000226   0.000001   0.000025  -0.000004  -0.001476   0.005731
    16  O   -0.000354   0.000005   0.000100   0.000000   0.005308  -0.015245
    17  N   -0.000017   0.000000   0.000000   0.000000   0.000128  -0.002344
    18  H   -0.000000   0.000000  -0.000000   0.000000  -0.000035  -0.000029
    19  C   -0.000000   0.000000   0.000000  -0.000000  -0.000001  -0.000005
    20  H    0.000000   0.000000   0.000000  -0.000000   0.000002   0.000009
    21  H   -0.000000   0.000000  -0.000000  -0.000000  -0.000000   0.000000
    22  H    0.000000  -0.000000  -0.000000   0.000000   0.000003   0.000019
    23  C    0.000000  -0.000000   0.000000  -0.000000   0.000000  -0.000000
    24  H   -0.000000   0.000000  -0.000000   0.000000  -0.000000   0.000000
    25  H   -0.000000  -0.000000  -0.000000   0.000000  -0.000000   0.000000
    26  H    0.000000  -0.000000   0.000000  -0.000000  -0.000000  -0.000000
    27  C   -0.000000   0.000000  -0.000000   0.000000   0.000000  -0.000001
    28  O    0.000001   0.000000   0.000000  -0.000000   0.000149  -0.000040
    29  N   -0.000000   0.000000   0.000000  -0.000000  -0.000000   0.000000
    30  H   -0.000000   0.000000  -0.000000   0.000000  -0.000000  -0.000000
    31  C   -0.000000   0.000000  -0.000000   0.000000   0.000001   0.000000
    32  H    0.000001   0.000000   0.000000  -0.000000   0.000014  -0.000001
    33  C   -0.000000  -0.000000  -0.000000  -0.000000  -0.000002   0.000000
    34  H    0.000000   0.000000   0.000000  -0.000000   0.000000   0.000000
    35  H   -0.000000   0.000000  -0.000000  -0.000000   0.000000  -0.000000
    36  C    0.000002   0.000001   0.000000  -0.000000  -0.000063  -0.000003
    37  O   -0.000044  -0.000011  -0.000000   0.000001   0.000140  -0.000001
    38  C    0.000000  -0.000000  -0.000000  -0.000000   0.000000   0.000000
    39  O    0.000000  -0.000000   0.000000  -0.000000   0.000000  -0.000000
    40  N   -0.000000  -0.000000  -0.000000   0.000000   0.000000   0.000000
    41  H    0.000000   0.000000   0.000000  -0.000000  -0.000000  -0.000000
    42  C    0.000000   0.000000   0.000000  -0.000000   0.000000   0.000000
    43  H   -0.000000  -0.000000  -0.000000   0.000000   0.000000   0.000000
    44  H    0.000000  -0.000000  -0.000000   0.000000  -0.000000   0.000000
    45  H   -0.000000   0.000000   0.000000  -0.000000   0.000000   0.000000
               7          8          9         10         11         12
     1  C   -0.098459  -0.000016   0.005035  -0.000005  -0.000052  -0.000034
     2  H    0.006818   0.001451   0.000027  -0.000011  -0.000027   0.000003
     3  H    0.000872   0.000020  -0.000129  -0.000005   0.000004  -0.000000
     4  H    0.001960  -0.000047  -0.000105   0.000016   0.000000   0.000001
     5  C    0.285867  -0.011877  -0.036782   0.000191   0.004355   0.000115
     6  O   -0.107143   0.002414   0.012364   0.003450   0.000535  -0.000006
     7  N    7.348676   0.310978   0.197940  -0.038114  -0.049577  -0.001352
     8  H    0.310978   0.297584  -0.023505   0.000516  -0.004158   0.002798
     9  C    0.197940  -0.023505   5.190659   0.392495   0.271790  -0.040397
    10  H   -0.038114   0.000516   0.392495   0.399439  -0.029847   0.001288
    11  C   -0.049577  -0.004158   0.271790  -0.029847   5.364381   0.382774
    12  H   -0.001352   0.002798  -0.040397   0.001288   0.382774   0.481134
    13  H    0.002691   0.000099  -0.033382   0.002200   0.385837  -0.017534
    14  S    0.002352  -0.000206  -0.046787  -0.010008   0.239608  -0.036803
    15  C   -0.044021   0.002277   0.351897  -0.044465  -0.029633   0.000093
    16  O    0.001455  -0.000083  -0.080954   0.001663   0.003420  -0.000064
    17  N    0.002255  -0.000065  -0.099457   0.006298  -0.001378   0.000111
    18  H    0.000033   0.000002   0.001942   0.000663   0.000105   0.000003
    19  C   -0.000067   0.000002   0.003779  -0.000050  -0.000196   0.000001
    20  H   -0.000007   0.000000   0.000545  -0.000024  -0.000022   0.000000
    21  H   -0.000000  -0.000000  -0.000089  -0.000000   0.000035  -0.000001
    22  H    0.000002  -0.000000  -0.000009  -0.000019  -0.000003   0.000000
    23  C   -0.000000  -0.000000  -0.000059   0.000078   0.000001   0.000000
    24  H   -0.000000  -0.000000   0.000000  -0.000001   0.000000   0.000000
    25  H    0.000000   0.000000   0.000001  -0.000005   0.000000  -0.000000
    26  H    0.000000  -0.000000  -0.000004  -0.000009  -0.000001   0.000000
    27  C   -0.000002   0.000002   0.000675  -0.001170  -0.000044   0.000002
    28  O    0.000543  -0.000020  -0.022957   0.000140  -0.000573  -0.000033
    29  N    0.000002  -0.000000  -0.000043   0.000157   0.000009   0.000000
    30  H   -0.000000  -0.000000   0.000001  -0.000002  -0.000000   0.000000
    31  C   -0.000041  -0.000006   0.000065   0.000094  -0.000107  -0.000003
    32  H    0.000076  -0.000018  -0.000055   0.000183   0.000004  -0.000001
    33  C   -0.000008   0.000115  -0.000144  -0.000226   0.002551  -0.000019
    34  H    0.000000  -0.000002  -0.000012   0.000020   0.000043  -0.000001
    35  H   -0.000000  -0.000001  -0.000001  -0.000003  -0.000044   0.000004
    36  C    0.001742  -0.000973  -0.004502  -0.001420  -0.025744  -0.003510
    37  O   -0.010454   0.011467   0.003884   0.001411   0.000880   0.002289
    38  C   -0.000000   0.000000   0.000000   0.000002   0.000000  -0.000000
    39  O    0.000000  -0.000000  -0.000000  -0.000000  -0.000000   0.000000
    40  N   -0.000000  -0.000000   0.000000   0.000000   0.000000  -0.000000
    41  H    0.000000  -0.000000  -0.000000  -0.000000  -0.000000  -0.000000
    42  C    0.000000  -0.000000  -0.000000   0.000000   0.000000   0.000000
    43  H   -0.000000   0.000000   0.000000  -0.000000   0.000000   0.000000
    44  H   -0.000000   0.000000  -0.000000   0.000000   0.000000   0.000000
    45  H    0.000000  -0.000000   0.000000  -0.000000  -0.000000  -0.000000
              13         14         15         16         17         18
     1  C    0.000002   0.000003  -0.000226  -0.000354  -0.000017  -0.000000
     2  H   -0.000000   0.000000   0.000001   0.000005   0.000000   0.000000
     3  H   -0.000000  -0.000000   0.000025   0.000100   0.000000  -0.000000
     4  H   -0.000000  -0.000000  -0.000004   0.000000   0.000000   0.000000
     5  C    0.000005  -0.000253  -0.001476   0.005308   0.000128  -0.000035
     6  O    0.000007   0.000001   0.005731  -0.015245  -0.002344  -0.000029
     7  N    0.002691   0.002352  -0.044021   0.001455   0.002255   0.000033
     8  H    0.000099  -0.000206   0.002277  -0.000083  -0.000065   0.000002
     9  C   -0.033382  -0.046787   0.351897  -0.080954  -0.099457   0.001942
    10  H    0.002200  -0.010008  -0.044465   0.001663   0.006298   0.000663
    11  C    0.385837   0.239608  -0.029633   0.003420  -0.001378   0.000105
    12  H   -0.017534  -0.036803   0.000093  -0.000064   0.000111   0.000003
    13  H    0.472094  -0.039028  -0.003860   0.000503   0.002165   0.000142
    14  S   -0.039028  15.601961   0.000815  -0.000044   0.000367   0.000295
    15  C   -0.003860   0.000815   4.149414   0.592611   0.271822  -0.018201
    16  O    0.000503  -0.000044   0.592611   8.233993  -0.114104   0.003168
    17  N    0.002165   0.000367   0.271822  -0.114104   7.350172   0.317290
    18  H    0.000142   0.000295  -0.018201   0.003168   0.317290   0.331666
    19  C   -0.000082   0.000027  -0.031576  -0.009444   0.199017  -0.020854
    20  H   -0.000008   0.000001  -0.004168   0.012480  -0.029191   0.002205
    21  H   -0.000007  -0.000004   0.000227   0.000580  -0.051545  -0.000577
    22  H    0.000002   0.000000   0.002305   0.000651  -0.047582  -0.001261
    23  C   -0.000000   0.000035   0.000006  -0.000000   0.000005  -0.000037
    24  H    0.000000   0.000003  -0.000000   0.000000  -0.000000   0.000001
    25  H   -0.000000   0.000000  -0.000000  -0.000000  -0.000001   0.000018
    26  H    0.000000   0.000064  -0.000000   0.000000  -0.000005   0.000156
    27  C    0.000002   0.000299  -0.000014   0.000000  -0.000011   0.000049
    28  O   -0.000022  -0.005004   0.000908  -0.000000  -0.000627   0.003121
    29  N   -0.000000   0.000462  -0.000000   0.000000  -0.000000   0.000009
    30  H    0.000000   0.000033  -0.000000   0.000000   0.000000  -0.000000
    31  C    0.000001   0.000109   0.000000   0.000000   0.000000  -0.000002
    32  H    0.000000   0.000369   0.000002   0.000000  -0.000000  -0.000000
    33  C   -0.000025  -0.075123   0.000003  -0.000000  -0.000000   0.000001
    34  H   -0.000001   0.001892  -0.000000   0.000000   0.000000  -0.000000
    35  H    0.000000   0.001797   0.000000  -0.000000   0.000000  -0.000000
    36  C    0.002253   0.280564   0.000183  -0.000002  -0.000004  -0.000006
    37  O    0.000082  -0.060782   0.000132  -0.000000  -0.000000   0.000001
    38  C   -0.000000  -0.000149   0.000000   0.000000   0.000000  -0.000000
    39  O    0.000000   0.000001  -0.000000   0.000000  -0.000000   0.000000
    40  N   -0.000000  -0.000009  -0.000000   0.000000  -0.000000   0.000000
    41  H    0.000000   0.000060  -0.000000   0.000000   0.000000  -0.000000
    42  C   -0.000000  -0.000000   0.000000  -0.000000  -0.000000   0.000000
    43  H   -0.000000  -0.000000  -0.000000   0.000000   0.000000  -0.000000
    44  H   -0.000000  -0.000000   0.000000  -0.000000  -0.000000  -0.000000
    45  H    0.000000   0.000000  -0.000000   0.000000   0.000000   0.000000
              19         20         21         22         23         24
     1  C   -0.000000   0.000000  -0.000000   0.000000   0.000000  -0.000000
     2  H    0.000000   0.000000   0.000000  -0.000000  -0.000000   0.000000
     3  H    0.000000   0.000000  -0.000000  -0.000000   0.000000  -0.000000
     4  H   -0.000000  -0.000000  -0.000000   0.000000  -0.000000   0.000000
     5  C   -0.000001   0.000002  -0.000000   0.000003   0.000000  -0.000000
     6  O   -0.000005   0.000009   0.000000   0.000019  -0.000000   0.000000
     7  N   -0.000067  -0.000007  -0.000000   0.000002  -0.000000  -0.000000
     8  H    0.000002   0.000000  -0.000000  -0.000000  -0.000000  -0.000000
     9  C    0.003779   0.000545  -0.000089  -0.000009  -0.000059   0.000000
    10  H   -0.000050  -0.000024  -0.000000  -0.000019   0.000078  -0.000001
    11  C   -0.000196  -0.000022   0.000035  -0.000003   0.000001   0.000000
    12  H    0.000001   0.000000  -0.000001   0.000000   0.000000   0.000000
    13  H   -0.000082  -0.000008  -0.000007   0.000002  -0.000000   0.000000
    14  S    0.000027   0.000001  -0.000004   0.000000   0.000035   0.000003
    15  C   -0.031576  -0.004168   0.000227   0.002305   0.000006  -0.000000
    16  O   -0.009444   0.012480   0.000580   0.000651  -0.000000   0.000000
    17  N    0.199017  -0.029191  -0.051545  -0.047582   0.000005  -0.000000
    18  H   -0.020854   0.002205  -0.000577  -0.001261  -0.000037   0.000001
    19  C    4.941166   0.395723   0.402335   0.400881  -0.000000   0.000000
    20  H    0.395723   0.422458  -0.024400  -0.020746   0.000000  -0.000000
    21  H    0.402335  -0.024400   0.559033  -0.038662   0.000000  -0.000000
    22  H    0.400881  -0.020746  -0.038662   0.541484  -0.000000  -0.000000
    23  C   -0.000000   0.000000   0.000000  -0.000000   5.208322   0.377995
    24  H    0.000000  -0.000000  -0.000000  -0.000000   0.377995   0.524830
    25  H   -0.000000  -0.000000   0.000000   0.000000   0.381017  -0.020742
    26  H   -0.000000   0.000000   0.000000   0.000000   0.383991  -0.022284
    27  C    0.000000   0.000000  -0.000000   0.000000   0.367629  -0.047903
    28  O    0.000001   0.000000  -0.000000   0.000000  -0.067592   0.002915
    29  N    0.000000  -0.000000  -0.000000  -0.000000  -0.094436   0.007084
    30  H   -0.000000  -0.000000  -0.000000   0.000000  -0.001439   0.001655
    31  C   -0.000000  -0.000000   0.000000  -0.000000   0.008441   0.000395
    32  H    0.000000   0.000000  -0.000000   0.000000   0.000026   0.000003
    33  C    0.000000   0.000000  -0.000000   0.000000  -0.000439  -0.000019
    34  H    0.000000  -0.000000  -0.000000  -0.000000  -0.000097   0.000023
    35  H    0.000000   0.000000   0.000000   0.000000   0.000009  -0.000001
    36  C    0.000000   0.000000   0.000000  -0.000000   0.000027  -0.000001
    37  O    0.000000   0.000000   0.000000   0.000000  -0.000003   0.000000
    38  C   -0.000000   0.000000   0.000000  -0.000000  -0.000084  -0.000046
    39  O    0.000000  -0.000000  -0.000000  -0.000000  -0.000012  -0.000026
    40  N   -0.000000  -0.000000   0.000000  -0.000000   0.000001  -0.000000
    41  H   -0.000000  -0.000000  -0.000000   0.000000   0.000000   0.000000
    42  C   -0.000000   0.000000  -0.000000  -0.000000  -0.000000  -0.000000
    43  H   -0.000000   0.000000   0.000000  -0.000000   0.000000  -0.000000
    44  H    0.000000   0.000000  -0.000000   0.000000  -0.000000   0.000000
    45  H   -0.000000  -0.000000   0.000000  -0.000000   0.000000  -0.000000
              25         26         27         28         29         30
     1  C   -0.000000   0.000000  -0.000000   0.000001  -0.000000  -0.000000
     2  H   -0.000000  -0.000000   0.000000   0.000000   0.000000   0.000000
     3  H   -0.000000   0.000000  -0.000000   0.000000   0.000000  -0.000000
     4  H    0.000000  -0.000000   0.000000  -0.000000  -0.000000   0.000000
     5  C   -0.000000  -0.000000   0.000000   0.000149  -0.000000  -0.000000
     6  O    0.000000  -0.000000  -0.000001  -0.000040   0.000000  -0.000000
     7  N    0.000000   0.000000  -0.000002   0.000543   0.000002  -0.000000
     8  H    0.000000  -0.000000   0.000002  -0.000020  -0.000000  -0.000000
     9  C    0.000001  -0.000004   0.000675  -0.022957  -0.000043   0.000001
    10  H   -0.000005  -0.000009  -0.001170   0.000140   0.000157  -0.000002
    11  C    0.000000  -0.000001  -0.000044  -0.000573   0.000009  -0.000000
    12  H   -0.000000   0.000000   0.000002  -0.000033   0.000000   0.000000
    13  H   -0.000000   0.000000   0.000002  -0.000022  -0.000000   0.000000
    14  S    0.000000   0.000064   0.000299  -0.005004   0.000462   0.000033
    15  C   -0.000000  -0.000000  -0.000014   0.000908  -0.000000  -0.000000
    16  O   -0.000000   0.000000   0.000000  -0.000000   0.000000   0.000000
    17  N   -0.000001  -0.000005  -0.000011  -0.000627  -0.000000   0.000000
    18  H    0.000018   0.000156   0.000049   0.003121   0.000009  -0.000000
    19  C   -0.000000  -0.000000   0.000000   0.000001   0.000000  -0.000000
    20  H   -0.000000   0.000000   0.000000   0.000000  -0.000000  -0.000000
    21  H    0.000000   0.000000  -0.000000  -0.000000  -0.000000  -0.000000
    22  H    0.000000   0.000000   0.000000   0.000000  -0.000000   0.000000
    23  C    0.381017   0.383991   0.367629  -0.067592  -0.094436  -0.001439
    24  H   -0.020742  -0.022284  -0.047903   0.002915   0.007084   0.001655
    25  H    0.456466  -0.017188  -0.025863  -0.000103   0.000660   0.000051
    26  H   -0.017188   0.466266  -0.028623   0.000491   0.002136  -0.000039
    27  C   -0.025863  -0.028623   4.222214   0.543208   0.319154  -0.016501
    28  O   -0.000103   0.000491   0.543208   8.265110  -0.104539   0.001622
    29  N    0.000660   0.002136   0.319154  -0.104539   7.280493   0.308056
    30  H    0.000051  -0.000039  -0.016501   0.001622   0.308056   0.293586
    31  C   -0.000257  -0.000112  -0.051850   0.011731   0.132770  -0.060276
    32  H    0.000049  -0.000025  -0.005273   0.004065  -0.053069   0.003756
    33  C   -0.000021   0.000075  -0.013811   0.003745  -0.108353   0.005225
    34  H    0.000004  -0.000015   0.000154  -0.001261   0.009763   0.000181
    35  H    0.000000  -0.000001   0.000549   0.000215   0.003387   0.000024
    36  C   -0.000001  -0.000002  -0.000554  -0.002508   0.002023  -0.000226
    37  O    0.000000  -0.000000  -0.000145  -0.001616   0.000739  -0.000004
    38  C    0.000001   0.000000   0.006145   0.000685  -0.058305  -0.015430
    39  O   -0.000000  -0.000000  -0.000113  -0.000005  -0.004760   0.037309
    40  N   -0.000000  -0.000000  -0.000201  -0.000004   0.004307   0.002024
    41  H   -0.000000  -0.000000  -0.000000   0.000002   0.000062  -0.000037
    42  C    0.000000   0.000000   0.000003   0.000000  -0.000088  -0.000070
    43  H   -0.000000  -0.000000   0.000000   0.000000  -0.000000  -0.000000
    44  H    0.000000  -0.000000   0.000000   0.000000  -0.000005  -0.000008
    45  H   -0.000000   0.000000  -0.000000   0.000000   0.000002   0.000002
              31         32         33         34         35         36
     1  C   -0.000000   0.000001  -0.000000   0.000000  -0.000000   0.000002
     2  H    0.000000   0.000000  -0.000000   0.000000   0.000000   0.000001
     3  H   -0.000000   0.000000  -0.000000   0.000000  -0.000000   0.000000
     4  H    0.000000  -0.000000  -0.000000  -0.000000  -0.000000  -0.000000
     5  C    0.000001   0.000014  -0.000002   0.000000   0.000000  -0.000063
     6  O    0.000000  -0.000001   0.000000   0.000000  -0.000000  -0.000003
     7  N   -0.000041   0.000076  -0.000008   0.000000  -0.000000   0.001742
     8  H   -0.000006  -0.000018   0.000115  -0.000002  -0.000001  -0.000973
     9  C    0.000065  -0.000055  -0.000144  -0.000012  -0.000001  -0.004502
    10  H    0.000094   0.000183  -0.000226   0.000020  -0.000003  -0.001420
    11  C   -0.000107   0.000004   0.002551   0.000043  -0.000044  -0.025744
    12  H   -0.000003  -0.000001  -0.000019  -0.000001   0.000004  -0.003510
    13  H    0.000001   0.000000  -0.000025  -0.000001   0.000000   0.002253
    14  S    0.000109   0.000369  -0.075123   0.001892   0.001797   0.280564
    15  C    0.000000   0.000002   0.000003  -0.000000   0.000000   0.000183
    16  O    0.000000   0.000000  -0.000000   0.000000  -0.000000  -0.000002
    17  N    0.000000  -0.000000  -0.000000   0.000000   0.000000  -0.000004
    18  H   -0.000002  -0.000000   0.000001  -0.000000  -0.000000  -0.000006
    19  C   -0.000000   0.000000   0.000000   0.000000   0.000000   0.000000
    20  H   -0.000000   0.000000   0.000000  -0.000000   0.000000   0.000000
    21  H    0.000000  -0.000000  -0.000000  -0.000000   0.000000   0.000000
    22  H   -0.000000   0.000000   0.000000  -0.000000   0.000000  -0.000000
    23  C    0.008441   0.000026  -0.000439  -0.000097   0.000009   0.000027
    24  H    0.000395   0.000003  -0.000019   0.000023  -0.000001  -0.000001
    25  H   -0.000257   0.000049  -0.000021   0.000004   0.000000  -0.000001
    26  H   -0.000112  -0.000025   0.000075  -0.000015  -0.000001  -0.000002
    27  C   -0.051850  -0.005273  -0.013811   0.000154   0.000549  -0.000554
    28  O    0.011731   0.004065   0.003745  -0.001261   0.000215  -0.002508
    29  N    0.132770  -0.053069  -0.108353   0.009763   0.003387   0.002023
    30  H   -0.060276   0.003756   0.005225   0.000181   0.000024  -0.000226
    31  C    5.213133   0.410783   0.321737  -0.040675  -0.032697  -0.027242
    32  H    0.410783   0.482645  -0.068373   0.003048   0.003452  -0.001823
    33  C    0.321737  -0.068373   5.458211   0.375607   0.379146   0.302837
    34  H   -0.040675   0.003048   0.375607   0.491745  -0.017674  -0.025384
    35  H   -0.032697   0.003452   0.379146  -0.017674   0.482562  -0.032351
    36  C   -0.027242  -0.001823   0.302837  -0.025384  -0.032351   4.665819
    37  O   -0.002903   0.009072  -0.070420   0.002466  -0.000538   0.467545
    38  C    0.386053  -0.028295  -0.045052  -0.000324  -0.003943   0.002825
    39  O   -0.078462   0.000549   0.001220  -0.000076  -0.000059  -0.000015
    40  N   -0.101478   0.001164  -0.005562   0.000513   0.003189   0.000058
    41  H    0.000312   0.001484  -0.000496   0.000131   0.000491  -0.000535
    42  C    0.003385  -0.000083  -0.000085  -0.000004  -0.000079   0.000005
    43  H    0.000024  -0.000003  -0.000010  -0.000000   0.000001   0.000000
    44  H    0.000079   0.000000  -0.000019   0.000001   0.000011   0.000000
    45  H   -0.000037  -0.000002   0.000065  -0.000004  -0.000089  -0.000001
              37         38         39         40         41         42
     1  C   -0.000044   0.000000   0.000000  -0.000000   0.000000   0.000000
     2  H   -0.000011  -0.000000  -0.000000  -0.000000   0.000000   0.000000
     3  H   -0.000000  -0.000000   0.000000  -0.000000   0.000000   0.000000
     4  H    0.000001  -0.000000  -0.000000   0.000000  -0.000000  -0.000000
     5  C    0.000140   0.000000   0.000000   0.000000  -0.000000   0.000000
     6  O   -0.000001   0.000000  -0.000000   0.000000  -0.000000   0.000000
     7  N   -0.010454  -0.000000   0.000000  -0.000000   0.000000   0.000000
     8  H    0.011467   0.000000  -0.000000  -0.000000  -0.000000  -0.000000
     9  C    0.003884   0.000000  -0.000000   0.000000  -0.000000  -0.000000
    10  H    0.001411   0.000002  -0.000000   0.000000  -0.000000   0.000000
    11  C    0.000880   0.000000  -0.000000   0.000000  -0.000000   0.000000
    12  H    0.002289  -0.000000   0.000000  -0.000000  -0.000000   0.000000
    13  H    0.000082  -0.000000   0.000000  -0.000000   0.000000  -0.000000
    14  S   -0.060782  -0.000149   0.000001  -0.000009   0.000060  -0.000000
    15  C    0.000132   0.000000  -0.000000  -0.000000  -0.000000   0.000000
    16  O   -0.000000   0.000000   0.000000   0.000000   0.000000  -0.000000
    17  N   -0.000000   0.000000  -0.000000  -0.000000   0.000000  -0.000000
    18  H    0.000001  -0.000000   0.000000   0.000000  -0.000000   0.000000
    19  C    0.000000  -0.000000   0.000000  -0.000000  -0.000000  -0.000000
    20  H    0.000000   0.000000  -0.000000  -0.000000  -0.000000   0.000000
[...]
 1133 Fit      -0.002469
 1134 Fit      -0.011260
 1135 Fit       0.026157
 1136 Fit       0.024715
 1137 Fit       0.029831
 1138 Fit       0.022755
 1139 Fit       0.020759
 1140 Fit       0.018254
 1141 Fit       0.018971
 1142 Fit       0.020504
 1143 Fit       0.025963
 1144 Fit       0.019181
 1145 Fit       0.020405
 1146 Fit       0.027239
 1147 Fit       0.023786
 1148 Fit       0.026950
 1149 Fit       0.021463
 1150 Fit       0.022884
 1151 Fit       0.025418
 1152 Fit       0.026777
 1153 Fit       0.020481
 1154 Fit       0.021196
 1155 Fit       0.023007
 1156 Fit       0.023215
 1157 Fit       0.020927
 1158 Fit       0.000648
 1159 Fit       0.012045
 1160 Fit       0.007382
 1161 Fit      -0.000906
 1162 Fit       0.003605
 1163 Fit       0.011266
 1164 Fit       0.015887
 1165 Fit       0.018381
 1166 Fit       0.019019
 1167 Fit       0.016210
 1168 Fit       0.010294
 1169 Fit       0.011731
 1170 Fit       0.016042
 1171 Fit       0.018271
 1172 Fit       0.015610
 1173 Fit       0.017042
 1174 Fit       0.016676
 1175 Fit       0.020138
 1176 Fit       0.022187
 1177 Fit       0.022937
 1178 Fit       0.021254
 1179 Fit       0.021386
 1180 Fit       0.022499
 1181 Fit       0.021745
 1182 Fit       0.020360
 1183 Fit       0.020543
 1184 Fit       0.021272
 1185 Fit       0.017379
 1186 Fit       0.019009
 1187 Fit       0.030914
 1188 Fit       0.003674
 1189 Fit       0.009750
 1190 Fit      -0.022789
 1191 Fit      -0.020143
 1192 Fit      -0.022281
 1193 Fit      -0.018278
 1194 Fit       0.012066
 1195 Fit       0.012235
 1196 Fit       0.014148
 1197 Fit       0.025661
 1198 Fit       0.018440
 1199 Fit       0.028723
 1200 Fit       0.024030
 1201 Fit       0.029806
 1202 Fit       0.006956
 1203 Fit       0.023778
 1204 Fit       0.015170
 1205 Fit       0.007149
 1206 Fit      -0.002799
 1207 Fit      -0.015252
 1208 Fit       0.013443
 1209 Fit       0.005769
 1210 Fit       0.001336
 1211 Fit       0.012679
 1212 Fit       0.020699
 1213 Fit       0.021307
 1214 Fit       0.019347
 1215 Fit       0.017577
 1216 Fit       0.018220
 1217 Fit       0.020827
 1218 Fit       0.020493
 1219 Fit       0.023394
 1220 Fit       0.026663
 1221 Fit       0.024934
 1222 Fit       0.021979
 1223 Fit       0.019577
 1224 Fit       0.021820
 1225 Fit       0.022671
 1226 Fit       0.019540
 1227 Fit       0.020224
 1228 Fit       0.023007
 1229 Fit       0.026952
 1230 Fit       0.029411
 1231 Fit       0.021293
 1232 Fit       0.021363
 1233 Fit       0.006120
 1234 Fit      -0.000949
 1235 Fit      -0.004848
 1236 Fit       0.010985
 1237 Fit      -0.002949
 1238 Fit      -0.006673
 1239 Fit       0.000270
 1240 Fit       0.005741
 1241 Fit      -0.005478
 1242 Fit      -0.003909
 1243 Fit       0.008532
 1244 Fit      -0.004664
 1245 Fit       0.000155
 1246 Fit      -0.002454
 1247 Fit      -0.003403
 1248 Fit      -0.002568
 1249 Fit       0.013915
 1250 Fit       0.007878
 1251 Fit       0.001590
 1252 Fit       0.010073
 1253 Fit       0.013535
 1254 Fit       0.004207
 1255 Fit       0.011548
 1256 Fit      -0.005549
 1257 Fit      -0.010736
 1258 Fit      -0.013531
 1259 Fit      -0.004289
 1260 Fit      -0.015449
 1261 Fit      -0.018166
 1262 Fit      -0.017773
 1263 Fit      -0.006268
 1264 Fit      -0.017992
 1265 Fit      -0.021255
 1266 Fit      -0.018903
 1267 Fit       0.004224
 1268 Fit      -0.014326
 1269 Fit      -0.020709
 1270 Fit      -0.017450
 1271 Fit      -0.010283
 1272 Fit      -0.002992
 1273 Fit       0.001100
 1274 Fit      -0.002994
 1275 Fit      -0.015215
 1276 Fit      -0.011588
 1277 Fit       0.027518
 1278 Fit       0.017888
 1279 Fit       0.020324
 1280 Fit       0.017906
 1281 Fit       0.012878
 1282 Fit       0.012368
 1283 Fit       0.009608
 1284 Fit       0.032618
 1285 Fit       0.028868
 1286 Fit       0.035127
 1287 Fit       0.029622
 1288 Fit       0.017060
 1289 Fit       0.031629
 1290 Fit       0.024257
 1291 Fit       0.023371
 1292 Fit       0.017039
 1293 Fit       0.020790
 1294 Fit       0.026287
 1295 Fit       0.018681
 1296 Fit       0.017673
 1297 Fit       0.013532
 1298 Fit       0.016359
 1299 Fit       0.015352
 1300 Fit       0.015006
 1301 Fit       0.014790
 1302 Fit       0.012965
 1303 Fit       0.021485
 1304 Fit       0.026225
 1305 Fit       0.019360
 1306 Fit       0.020913
 1307 Fit       0.023348
 1308 Fit       0.029252
 1309 Fit       0.018423
 1310 Fit       0.019384
 1311 Fit       0.020722
 1312 Fit       0.022850
 1313 Fit       0.028611
 1314 Fit       0.017375
 1315 Fit       0.018064
 1316 Fit       0.019064
 1317 Fit       0.020705
 1318 Fit       0.011211
 1319 Fit      -0.011898
 1320 Fit       0.003857
 1321 Fit       0.009038
 1322 Fit       0.012628
 1323 Fit       0.014113
 1324 Fit       0.001280
 1325 Fit       0.007318
 1326 Fit       0.010669
 1327 Fit       0.009870
 1328 Fit       0.004610
 1329 Fit      -0.002464
 1330 Fit       0.005303
 1331 Fit       0.018412
 1332 Fit       0.016221
 1333 Fit       0.018340
 1334 Fit       0.018006
 1335 Fit       0.015320
 1336 Fit       0.014504
 1337 Fit       0.016715
 1338 Fit       0.009849
 1339 Fit       0.009694
 1340 Fit       0.012205
 1341 Fit       0.012666
 1342 Fit       0.002250
 1343 Fit       0.008521
 1344 Fit      -0.004237
 1345 Fit      -0.007886
 1346 Fit      -0.018849
 1347 Fit      -0.000922
 1348 Fit      -0.001255
 1349 Fit      -0.003239
 1350 Fit       0.000676
 1351 Fit       0.001699
 1352 Fit       0.001109
 1353 Fit      -0.000419
 1354 Fit      -0.002226
 1355 Fit      -0.003662
 1356 Fit      -0.003086
 1357 Fit      -0.001965
 1358 Fit      -0.004037
 1359 Fit      -0.010067
 1360 Fit      -0.018398
 1361 Fit      -0.034737
 1362 Fit       0.005227
 1363 Fit       0.000956
 1364 Fit       0.004704
 1365 Fit       0.003630
 1366 Fit       0.000752
 1367 Fit      -0.003228
 1368 Fit       0.000498
 1369 Fit       0.004010
 1370 Fit       0.003525
 1371 Fit       0.001609
 1372 Fit      -0.000958
 1373 Fit       0.001752
 1374 Fit       0.002811
 1375 Fit       0.001945
 1376 Fit       0.000146
 1377 Fit      -0.004876
 1378 Fit      -0.008831
 1379 Fit      -0.017000
 1380 Fit      -0.034078
 1381 Fit      -0.004288
 1382 Fit      -0.006967
 1383 Fit      -0.012429
 1384 Fit      -0.022967
 1385 Fit      -0.043085
 1386 Fit      -0.004548
 1387 Fit      -0.006955
 1388 Fit      -0.011938
 1389 Fit      -0.021320
 1390 Fit      -0.038426
 1391 Fit      -0.005998
 1392 Fit      -0.008927
 1393 Fit      -0.015287
 1394 Fit      -0.027704
 1395 Fit      -0.019879
 1396 Fit       0.000079
 1397 Fit       0.000949
 1398 Fit       0.000144
 1399 Fit      -0.004264
 1400 Fit      -0.002100
 1401 Fit      -0.000654
 1402 Fit      -0.001697
 1403 Fit      -0.004337
 1404 Fit      -0.023926
 1405 Fit      -0.008383
 1406 Fit      -0.005670
 1407 Fit      -0.004337
 1408 Fit      -0.008336
 1409 Fit      -0.016961
 1410 Fit      -0.023654
 1411 Fit      -0.014722
 1412 Fit      -0.010674
 1413 Fit      -0.049780
 1414 Fit      -0.006918
 1415 Fit      -0.017048
 1416 Fit      -0.042126
 1417 Fit      -0.052803
 1418 Fit      -0.055975
 1419 Fit      -0.051968
 1420 Fit      -0.034889
 1421 Fit      -0.031211
 1422 Fit      -0.026927
 1423 Fit      -0.027773
 1424 Fit      -0.045266
 1425 Fit      -0.050298
 1426 Fit      -0.049914
 1427 Fit      -0.046107
 1428 Fit      -0.041343
 1429 Fit      -0.036619
 1430 Fit      -0.032494
 1431 Fit      -0.035398
 1432 Fit      -0.033411
 1433 Fit      -0.040422
 1434 Fit      -0.046511
 1435 Fit      -0.045235
 1436 Fit      -0.040292
 1437 Fit      -0.041777
 1438 Fit      -0.011131
 1439 Fit      -0.027675
 1440 Fit       0.003193
 1441 Fit       0.005155
 1442 Fit       0.001807
 1443 Fit       0.003203
 1444 Fit      -0.026210
 1445 Fit       0.001448
 1446 Fit       0.001787
 1447 Fit       0.002690
 1448 Fit       0.002439
 1449 Fit      -0.001055
 1450 Fit      -0.003750
 1451 Fit       0.004422
 1452 Fit       0.001318
 1453 Fit      -0.006088
 1454 Fit      -0.013725
 1455 Fit       0.002893
 1456 Fit       0.005710
 1457 Fit      -0.003485
 1458 Fit       0.000198
 1459 Fit       0.004716
 1460 Fit      -0.017349
 1461 Fit      -0.012519
 1462 Fit      -0.004193
 1463 Fit       0.002482
 1464 Fit       0.007026
 1465 Fit      -0.003937
 1466 Fit      -0.002641
 1467 Fit      -0.004168
 1468 Fit      -0.003867
 1469 Fit      -0.002112
 1470 Fit      -0.002123
 1471 Fit      -0.002478
 1472 Fit       0.002307
 1473 Fit       0.000678
 1474 Fit      -0.002301
 1475 Fit      -0.003404
 1476 Fit      -0.001988
 1477 Fit      -0.000055
 1478 Fit       0.001694
 1479 Fit       0.001701
 1480 Fit       0.000275
 1481 Fit      -0.000610
 1482 Fit       0.000131
 1483 Fit       0.001707
 1484 Fit       0.010617
 1485 Fit       0.009788
 1486 Fit       0.004914
 1487 Fit      -0.000499
 1488 Fit      -0.001431
 1489 Fit       0.006375
 1490 Fit       0.003940
 1491 Fit       0.001774
 1492 Fit       0.001113
 1493 Fit       0.002668
 1494 Fit       0.005859
 1495 Fit       0.008933
 1496 Fit       0.005597
 1497 Fit       0.003454
 1498 Fit       0.002818
 1499 Fit       0.004678
 1500 Fit       0.009084
 1501 Fit       0.007193
 1502 Fit       0.006609
 1503 Fit       0.005589
 1504 Fit       0.006914
 1505 Fit       0.011324
 1506 Fit      -0.029610
 1507 Fit      -0.028928
 1508 Fit      -0.033430
 1509 Fit      -0.038507
 1510 Fit      -0.039191
 1511 Fit      -0.036043
 1512 Fit      -0.029235
 1513 Fit      -0.039638
 1514 Fit      -0.043314
 1515 Fit      -0.044056
 1516 Fit      -0.041641
 1517 Fit      -0.035567
 1518 Fit      -0.042190
 1519 Fit      -0.046474
 1520 Fit      -0.046637
 1521 Fit      -0.043265
 1522 Fit      -0.048695
 1523 Fit      -0.049878
 1524 Fit      -0.045755
 1525 Fit      -0.054946
 1526 Fit       0.000839
 1527 Fit       0.007877
 1528 Fit       0.012102
 1529 Fit      -0.003635
 1530 Fit      -0.032211
 1531 Fit      -0.034020
 1532 Fit       0.014172
 1533 Fit       0.019038
 1534 Fit       0.020283
 1535 Fit      -0.016165
 1536 Fit      -0.016066
 1537 Fit      -0.015508
 1538 Fit      -0.008181
 1539 Fit       0.010419
 1540 Fit      -0.008193
 1541 Fit      -0.004549
 1542 Fit      -0.001710
 1543 Fit       0.000792
 1544 Fit       0.003969
 1545 Fit       0.009275
 1546 Fit      -0.008952
 1547 Fit      -0.004783
 1548 Fit      -0.017999
 1549 Fit      -0.036714
 1550 Fit      -0.029040
 1551 Fit      -0.022902
 1552 Fit      -0.025237
 1553 Fit      -0.015283
 1554 Fit      -0.040738
 1555 Fit      -0.023909
 1556 Fit      -0.014836
 1557 Fit      -0.035063
 1558 Fit      -0.020915
 1559 Fit      -0.013232
 1560 Fit      -0.035318
 1561 Fit      -0.002415
 1562 Fit      -0.010032
 1563 Fit      -0.005067
 1564 Fit      -0.000409
 1565 Fit       0.001913
 1566 Fit      -0.010036
 1567 Fit      -0.004208
 1568 Fit      -0.000408
 1569 Fit       0.002285
 1570 Fit       0.004594
 1571 Fit      -0.007561
 1572 Fit      -0.003275
 1573 Fit      -0.000271
 1574 Fit       0.002126
 1575 Fit       0.004718
 1576 Fit       0.008779
 1577 Fit      -0.000916
 1578 Fit       0.001393
 1579 Fit      -0.001420
 1580 Fit       0.001263
 1581 Fit       0.004204
 1582 Fit       0.007635
 1583 Fit      -0.009526
 1584 Fit      -0.007183
 1585 Fit      -0.002944
 1586 Fit       0.000006
 1587 Fit       0.001932
 1588 Fit       0.000976
 1589 Fit      -0.011802
 1590 Fit      -0.024807
 1591 Fit      -0.021061
 1592 Fit      -0.011077
 1593 Fit      -0.005120
 1594 Fit      -0.003996
 1595 Fit      -0.011810
 1596 Fit       0.022842
 1597 Fit       0.022368
 1598 Fit       0.026471
 1599 Fit       0.021093
 1600 Fit       0.019425
 1601 Fit       0.012443
 1602 Fit       0.015878
 1603 Fit       0.017178
 1604 Fit       0.017546
 1605 Fit       0.018251
 1606 Fit       0.016045
 1607 Fit       0.016854
 1608 Fit       0.018353
 1609 Fit       0.020670
 1610 Fit       0.020162
 1611 Fit       0.016886
 1612 Fit       0.017828
 1613 Fit       0.022140
 1614 Fit       0.024582
 1615 Fit       0.020066
 1616 Fit       0.021116
 1617 Fit       0.023080
 1618 Fit       0.019027
 1619 Fit       0.019898
 1620 Fit       0.021210
 1621 Fit       0.021498
 1622 Fit       0.018664
 1623 Fit       0.019640
 1624 Fit       0.020069
 1625 Fit       0.018741
 1626 Fit      -0.008387
 1627 Fit       0.003782
 1628 Fit       0.011328
 1629 Fit       0.014647
 1630 Fit       0.004992
 1631 Fit      -0.001559
 1632 Fit       0.002048
 1633 Fit       0.008798
 1634 Fit       0.013253
 1635 Fit       0.015780
 1636 Fit       0.015974
 1637 Fit       0.013085
 1638 Fit       0.008049
 1639 Fit       0.009310
 1640 Fit       0.013344
 1641 Fit       0.015576
 1642 Fit       0.012819
 1643 Fit       0.014081
 1644 Fit       0.013260
 1645 Fit       0.017197
 1646 Fit       0.019544
 1647 Fit       0.019820
 1648 Fit       0.018537
 1649 Fit       0.018940
 1650 Fit       0.020371
 1651 Fit       0.019610
 1652 Fit       0.018424
 1653 Fit       0.018685
 1654 Fit       0.019666
 1655 Fit       0.017125
 1656 Fit       0.017421
 1657 Fit       0.018208
 1658 Fit       0.026402
 1659 Fit       0.002239
 1660 Fit      -0.011436
 1661 Fit       0.014212
 1662 Fit       0.007594
 1663 Fit      -0.014360
 1664 Fit      -0.018649
 1665 Fit      -0.014754
 1666 Fit       0.028186
 1667 Fit       0.021784
 1668 Fit       0.010230
 1669 Fit       0.010095
 1670 Fit       0.011511
 1671 Fit       0.020495
 1672 Fit       0.015529
 1673 Fit       0.017670
 1674 Fit       0.017439
 1675 Fit       0.019418
 1676 Fit       0.010512
 1677 Fit       0.001392
 1678 Fit       0.012284
 1679 Fit       0.006185
 1680 Fit      -0.002222
 1681 Fit       0.010858
 1682 Fit       0.004451
 1683 Fit       0.001114
 1684 Fit       0.017145
 1685 Fit       0.018057
 1686 Fit       0.018850
 1687 Fit       0.014967
 1688 Fit       0.014645
 1689 Fit       0.017477
 1690 Fit       0.017885
 1691 Fit       0.018965
 1692 Fit       0.021310
 1693 Fit       0.020290
 1694 Fit       0.018706
 1695 Fit       0.016788
 1696 Fit       0.019123
 1697 Fit       0.019352
 1698 Fit       0.020708
 1699 Fit       0.023314
 1700 Fit       0.023813
 1701 Fit       0.017863
 1702 Fit       0.019176
 1703 Fit       0.018753
 1704 Fit       0.016159
 1705 Fit       0.005880
 1706 Fit       0.016889
 1707 Fit       0.012137
 1708 Fit       0.001457
 1709 Fit      -0.003321
 1710 Fit      -0.001525
 1711 Fit       0.009594
 1712 Fit      -0.000976
 1713 Fit      -0.003087
 1714 Fit       0.003446
 1715 Fit      -0.002010
 1716 Fit       0.000388
 1717 Fit       0.002553
 1718 Fit      -0.001984
 1719 Fit       0.015742
 1720 Fit       0.011433
 1721 Fit       0.012162
 1722 Fit       0.001391
 1723 Fit       0.007525
 1724 Fit       0.009635
 1725 Fit      -0.000937
 1726 Fit      -0.003555
 1727 Fit      -0.001896
 1728 Fit      -0.009360
 1729 Fit      -0.010549
 1730 Fit      -0.010704
 1731 Fit       0.005256
 1732 Fit      -0.008022
 1733 Fit      -0.013654
 1734 Fit      -0.014539
 1735 Fit      -0.012962
 1736 Fit      -0.005619
 1737 Fit      -0.013806
 1738 Fit      -0.016015
 1739 Fit      -0.013584
 1740 Fit       0.000042
 1741 Fit      -0.010960
 1742 Fit      -0.015091
 1743 Fit      -0.012127
 1744 Fit      -0.006932
 1745 Fit      -0.001639
 1746 Fit       0.001814
 1747 Fit      -0.000906
 1748 Fit      -0.010140
 1749 Fit      -0.007404
 1750 Fit       0.024604
 1751 Fit       0.018161
 1752 Fit       0.021646
 1753 Fit       0.016094
 1754 Fit       0.013919
 1755 Fit       0.011996
 1756 Fit       0.011111
 1757 Fit       0.010587
 1758 Fit       0.008707
 1759 Fit       0.028317
 1760 Fit       0.025101
 1761 Fit       0.029799
 1762 Fit       0.025109
 1763 Fit       0.022965
 1764 Fit       0.021308
 1765 Fit       0.012354
 1766 Fit       0.020075
 1767 Fit       0.019171
 1768 Fit       0.023478
 1769 Fit       0.017090
 1770 Fit       0.015882
 1771 Fit       0.012693
 1772 Fit       0.014751
 1773 Fit       0.011013
 1774 Fit       0.013651
 1775 Fit      -0.002144
 1776 Fit       0.006532
 1777 Fit       0.012862
 1778 Fit       0.014370
 1779 Fit       0.015873
 1780 Fit       0.012799
 1781 Fit       0.012501
 1782 Fit       0.011147
 1783 Fit       0.019766
 1784 Fit       0.023722
 1785 Fit       0.017689
 1786 Fit       0.018939
 1787 Fit       0.021171
 1788 Fit       0.026396
 1789 Fit       0.016771
 1790 Fit       0.017513
 1791 Fit       0.018646
 1792 Fit       0.020419
 1793 Fit       0.024469
 1794 Fit       0.016023
 1795 Fit       0.016542
 1796 Fit       0.017375
 1797 Fit       0.018566
 1798 Fit       0.021021
 1799 Fit       0.015553
 1800 Fit       0.016187
 1801 Fit       0.017068
 1802 Fit       0.008844
 1803 Fit       0.012252
 1804 Fit      -0.008766
 1805 Fit       0.002947
 1806 Fit       0.007203
 1807 Fit       0.010414
 1808 Fit       0.011815
 1809 Fit       0.000672
 1810 Fit       0.005687
 1811 Fit       0.008713
 1812 Fit       0.008166
 1813 Fit       0.003718
 1814 Fit      -0.001932
 1815 Fit       0.004152
 1816 Fit       0.017185
 1817 Fit       0.014992
 1818 Fit       0.017081
 1819 Fit       0.017286
 1820 Fit       0.014441
 1821 Fit       0.013470
 1822 Fit       0.015394
 1823 Fit       0.011858
 1824 Fit       0.010443
 1825 Fit       0.011753
 1826 Fit       0.012021
 1827 Fit       0.014622
 1828 Fit       0.001297
 1829 Fit       0.005698
 1830 Fit       0.009270
 1831 Fit      -0.001405
 1832 Fit       0.005906
 -----------------------------------------------------------------
 Leave Link  602 at Tue Jun  9 13:53:28 2026, MaxMem=    67108864 cpu:               1.7 elap:               0.2
 (Enter /software/local/apps/gaussian-16.0/g16/l9999.exe)

 Test job not archived.
 1\1\GINC-BP1-COMPUTE077\SP\RHF\6-31G(d)\C13H22N4O5S1\XV24323\09-Jun-20
 26\0\\#p hf/6-31g(d) SCF=Tight Pop=MK IOp(6/33=2)\\CYA_ASA_bond\\0,1\C
 ,0,2.32548,-3.513547,-1.644829\H,0,1.708264,-4.067529,-0.937217\H,0,3.
 323465,-3.950035,-1.676172\H,0,1.876271,-3.564071,-2.63669\C,0,2.42165
 2,-2.060201,-1.205668\O,0,2.886691,-1.220428,-1.972754\N,0,1.999597,-1
 .70612,0.010722\H,0,1.371795,-2.303353,0.530436\C,0,2.07785,-0.312249,
 0.462978\H,0,1.337972,0.281185,-0.055989\C,0,1.828111,-0.275068,1.9976
 33\H,0,1.88044,-1.280446,2.421794\H,0,2.584616,0.32754,2.508216\S,0,0.
 244954,0.523672,2.499109\C,0,3.458205,0.248281,0.124951\O,0,4.447339,-
 0.444028,0.068461\N,0,3.576309,1.556077,-0.11804\H,0,2.752265,2.138893
 ,-0.071877\C,0,4.866274,2.129716,-0.442533\H,0,5.600177,1.332501,-0.55
 7446\H,0,5.178303,2.798176,0.359085\H,0,4.790221,2.6899,-1.374851\C,0,
 -0.895758,3.301299,-1.509789\H,0,-1.85394,3.812449,-1.613423\H,0,-0.43
 0614,3.200534,-2.490074\H,0,-0.244454,3.879543,-0.855114\C,0,-1.120276
 ,1.919553,-0.910927\O,0,-0.161835,1.270444,-0.500194\N,0,-2.358639,1.4
 24348,-0.835486\H,0,-3.154003,1.976183,-1.17626\C,0,-2.547429,0.379066
 ,-0.386435\H,0,-1.961644,-0.468002,-0.801835\C,0,-2.244172,0.268926,1.
 232324\H,0,-2.277778,1.283192,1.641594\H,0,-3.024745,-0.317289,1.72553
 2\C,0,-0.927836,-0.416534,1.506947\O,0,-0.702843,-1.536564,1.084183\C,
 0,-4.090639,-0.037047,-0.520594\O,0,-4.898487,0.722037,-1.049592\N,0,-
 4.499774,-1.219691,-0.054475\H,0,-3.825937,-1.834865,0.378971\C,0,-5.8
 89155,-1.613969,-0.167067\H,0,-5.980701,-2.682016,0.02614\H,0,-6.24884
 3,-1.39401,-1.172372\H,0,-6.483603,-1.060574,0.559967\\Version=ES64L-G
 16RevC.01\State=1-A\HF=-1494.6575431\RMSD=6.421e-09\Dipole=-2.8364029,
 0.8381027,0.8304372\Quadrupole=-14.0618884,17.2352549,-3.1733665,12.60
 84973,2.2827234,-3.404584\PG=C01 [X(C13H22N4O5S1)]\\@


 THE ONLY TROUBLE WITH A SURE THING IS THE UNCERTAINTY.
     -- FROM A TEABAG (BELONGING TO W.H.?)
 Job cpu time:       0 days  0 hours  5 minutes 23.2 seconds.
 Elapsed time:       0 days  0 hours  0 minutes 20.8 seconds.
 File lengths (MBytes):  RWF=    200 Int=      0 D2E=      0 Chk=     24 Scr=     16
 Normal termination of Gaussian 16 at Tue Jun  9 13:53:29 2026.
