 Entering Gaussian System, Link 0=g16
 Initial command:
 /software/local/apps/gaussian-16.0/g16/l1.exe "/user/work/xv24323/CRAFT_SCSC/CYA_ASA/Gau-3807579.inp" -scrdir="/user/work/xv24323/CRAFT_SCSC/CYA_ASA/"
 Entering Link 1 = /software/local/apps/gaussian-16.0/g16/l1.exe PID=   3807580.
  
 Copyright (c) 1988-2019, Gaussian, Inc.  All Rights Reserved.
  
 This is part of the Gaussian(R) 16 program.  It is based on
 the Gaussian(R) 09 system (copyright 2009, Gaussian, Inc.),
 the Gaussian(R) 03 system (copyright 2003, Gaussian, Inc.),
 the Gaussian(R) 98 system (copyright 1998, Gaussian, Inc.),
 the Gaussian(R) 94 system (copyright 1995, Gaussian, Inc.),
 the Gaussian 92(TM) system (copyright 1992, Gaussian, Inc.),
 the Gaussian 90(TM) system (copyright 1990, Gaussian, Inc.),
 the Gaussian 88(TM) system (copyright 1988, Gaussian, Inc.),
 the Gaussian 86(TM) system (copyright 1986, Carnegie Mellon
 University), and the Gaussian 82(TM) system (copyright 1983,
 Carnegie Mellon University). Gaussian is a federally registered
 trademark of Gaussian, Inc.
  
 This software contains proprietary and confidential information,
 including trade secrets, belonging to Gaussian, Inc.
  
 This software is provided under written license and may be
 used, copied, transmitted, or stored only in accord with that
 written license.
  
 The following legend is applicable only to US Government
 contracts under FAR:
  
                    RESTRICTED RIGHTS LEGEND
  
 Use, reproduction and disclosure by the US Government is
 subject to restrictions as set forth in subparagraphs (a)
 and (c) of the Commercial Computer Software - Restricted
 Rights clause in FAR 52.227-19.
  
 Gaussian, Inc.
 340 Quinnipiac St., Bldg. 40, Wallingford CT 06492
  
  
 ---------------------------------------------------------------
 Warning -- This program may not be used in any manner that
 competes with the business of Gaussian, Inc. or will provide
 assistance to any competitor of Gaussian, Inc.  The licensee
 of this program is prohibited from giving any competitor of
 Gaussian, Inc. access to this program.  By using this program,
 the user acknowledges that Gaussian, Inc. is engaged in the
 business of creating and licensing software in the field of
 computational chemistry and represents and warrants to the
 licensee that it is not a competitor of Gaussian, Inc. and that
 it will not use this program in any manner prohibited above.
 ---------------------------------------------------------------
  

 Cite this work as:
 Gaussian 16, Revision C.01,
 M. J. Frisch, G. W. Trucks, H. B. Schlegel, G. E. Scuseria, 
 M. A. Robb, J. R. Cheeseman, G. Scalmani, V. Barone, 
 G. A. Petersson, H. Nakatsuji, X. Li, M. Caricato, A. V. Marenich, 
 J. Bloino, B. G. Janesko, R. Gomperts, B. Mennucci, H. P. Hratchian, 
 J. V. Ortiz, A. F. Izmaylov, J. L. Sonnenberg, D. Williams-Young, 
 F. Ding, F. Lipparini, F. Egidi, J. Goings, B. Peng, A. Petrone, 
 T. Henderson, D. Ranasinghe, V. G. Zakrzewski, J. Gao, N. Rega, 
 G. Zheng, W. Liang, M. Hada, M. Ehara, K. Toyota, R. Fukuda, 
 J. Hasegawa, M. Ishida, T. Nakajima, Y. Honda, O. Kitao, H. Nakai, 
 T. Vreven, K. Throssell, J. A. Montgomery, Jr., J. E. Peralta, 
 F. Ogliaro, M. J. Bearpark, J. J. Heyd, E. N. Brothers, K. N. Kudin, 
 V. N. Staroverov, T. A. Keith, R. Kobayashi, J. Normand, 
 K. Raghavachari, A. P. Rendell, J. C. Burant, S. S. Iyengar, 
 J. Tomasi, M. Cossi, J. M. Millam, M. Klene, C. Adamo, R. Cammi, 
 J. W. Ochterski, R. L. Martin, K. Morokuma, O. Farkas, 
 J. B. Foresman, and D. J. Fox, Gaussian, Inc., Wallingford CT, 2019.
 
 ******************************************
 Gaussian 16:  ES64L-G16RevC.01  3-Jul-2019
                 9-Jun-2026 
 ******************************************
 %nprocshared=16
 Will use up to   16 processors via shared memory.
 %mem=512MB
 ---------------------------------
 #P b3lyp/6-31g* opt(modredundant)
 ---------------------------------
 1/18=120,19=15,26=3,38=1/1,3;
 2/9=110,12=2,17=6,18=5,40=1/2;
 3/5=1,6=6,7=1,11=2,25=1,30=1,71=1,74=-5/1,2,3;
 4//1;
 5/5=2,38=5/2;
 6/7=2,8=2,9=2,10=2,28=1/1;
 7//1,2,3,16;
 1/18=20,19=15,26=3/3(2);
 2/9=110/2;
 99//99;
 2/9=110/2;
 3/5=1,6=6,7=1,11=2,25=1,30=1,71=1,74=-5/1,2,3;
 4/5=5,16=3,69=1/1;
 5/5=2,38=5/2;
 7//1,2,3,16;
 1/18=20,19=15,26=3/3(-5);
 2/9=110/2;
 6/7=2,8=2,9=2,10=2,19=2,28=1/1;
 99/9=1/99;
 Leave Link    1 at Tue Jun  9 13:38:04 2026, MaxMem=    67108864 cpu:              12.2 elap:               0.8
 (Enter /software/local/apps/gaussian-16.0/g16/l101.exe)
 ----------------------------------------------------------------------
 CYA_ASA_bond_combined covalent bond complex backbone-frozen optimisati
 on
 ----------------------------------------------------------------------
 Symbolic Z-matrix:
 Charge =  0 Multiplicity = 1
 C                     108.978   90.912    76.229 
 H                     109.797   91.284    75.613 
 H                     109.044   89.827    76.305 
 H                     109.044   91.35     77.225 
 C                     107.65    91.296    75.594 
 O                     106.608   91.165    76.232 
 N                     107.625   91.773    74.347 
 H                     108.485   91.885    73.81 
 C                     106.36    92.152    73.707 
 H                     106.035   93.116    74.097 
 C                     106.512   92.267    72.146 
 H                     107.413   91.742    71.829 
 H                     105.643   91.821    71.662 
 S                     106.739   94.073    71.653 
 C                     105.327   91.053    73.945 
 O                     105.631   89.891    74.081 
 N                     104.036   91.389    74.005 
 H                     103.777   92.359    73.892 
 C                     103.023   90.378    74.229 
 H                     103.503   89.423    74.441 
 H                     102.402   90.283    73.339 
 H                     102.402   90.668    75.077 
 C                     103.732   96.23     75.211 
 H                     103.565   97.307    75.258 
 H                     103.538   95.79     76.189 
 H                     103.061   95.79     74.474 
 C                     105.175   95.958    74.81 
 O                     105.512   94.824    74.478 
 N                     106.065   96.953    74.822 
 H                     105.663   97.693    74.193 
 C                     107.162   96.768    74.522 
 H                     107.603   96.092    75.299 
 C                     107.425   96.121    73.098 
 H                     106.494   96.081    72.489 
 H                     108.142   96.719    72.496 
 C                     107.984   94.691    73.281 
 O                     109.296   94.727    73.755 
 C                     108.053   98.083    74.735 
 O                     107.547   99.116    75.167 
 N                     109.355   98.056    74.441 
 H                     109.759   97.201    74.086 
 C                     110.176   99.235    74.627 
 H                     111.228   98.956    74.583 
 H                     109.958   99.68     75.598 
 H                     109.958   99.957    73.84 
 
 The following ModRedundant input section has been read:
 X       1 F                                                                   
 X       2 F                                                                   
 X       3 F                                                                   
 X       4 F                                                                   
 X       5 F                                                                   
 X       6 F                                                                   
 X       7 F                                                                   
 X       9 F                                                                   
 X      15 F                                                                   
 X      16 F                                                                   
 X      17 F                                                                   
 X      18 F                                                                   
 X      19 F                                                                   
 X      20 F                                                                   
 X      21 F                                                                   
 X      22 F                                                                   
 X      23 F                                                                   
 X      24 F                                                                   
 X      25 F                                                                   
 X      26 F                                                                   
 X      27 F                                                                   
 X      28 F                                                                   
 X      29 F                                                                   
 X      31 F                                                                   
 X      38 F                                                                   
 X      39 F                                                                   
 X      40 F                                                                   
 X      41 F                                                                   
 X      42 F                                                                   
 X      43 F                                                                   
 X      44 F                                                                   
 X      45 F                                                                   
 
 ITRead=  0  0  0  0  0  0  0  0  0  0  0  0  0  0  0  0  0  0  0  0
 ITRead=  0  0  0  0  0  0  0  0  0  0  0  0  0  0  0  0  0  0  0  0
 ITRead=  0  0  0  0  0
 MicOpt= -1 -1 -1 -1 -1 -1 -1 -1 -1 -1 -1 -1 -1 -1 -1 -1 -1 -1 -1 -1
 MicOpt= -1 -1 -1 -1 -1 -1 -1 -1 -1 -1 -1 -1 -1 -1 -1 -1 -1 -1 -1 -1
 MicOpt= -1 -1 -1 -1 -1
 NAtoms=     45 NQM=       45 NQMF=       0 NMMI=      0 NMMIF=      0
                NMic=       0 NMicF=      0.
                    Isotopes and Nuclear Properties:
 (Nuclear quadrupole moments (NQMom) in fm**2, nuclear magnetic moments (NMagM)
  in nuclear magnetons)

  Atom         1           2           3           4           5           6           7           8           9          10
 IAtWgt=          12           1           1           1          12          16          14           1          12           1
 AtmWgt=  12.0000000   1.0078250   1.0078250   1.0078250  12.0000000  15.9949146  14.0030740   1.0078250  12.0000000   1.0078250
 NucSpn=           0           1           1           1           0           0           2           1           0           1
 AtZEff=  -0.0000000  -0.0000000  -0.0000000  -0.0000000  -0.0000000  -0.0000000  -0.0000000  -0.0000000  -0.0000000  -0.0000000
 NQMom=    0.0000000   0.0000000   0.0000000   0.0000000   0.0000000   0.0000000   2.0440000   0.0000000   0.0000000   0.0000000
 NMagM=    0.0000000   2.7928460   2.7928460   2.7928460   0.0000000   0.0000000   0.4037610   2.7928460   0.0000000   2.7928460
 AtZNuc=   6.0000000   1.0000000   1.0000000   1.0000000   6.0000000   8.0000000   7.0000000   1.0000000   6.0000000   1.0000000

  Atom        11          12          13          14          15          16          17          18          19          20
 IAtWgt=          12           1           1          32          12          16          14           1          12           1
 AtmWgt=  12.0000000   1.0078250   1.0078250  31.9720718  12.0000000  15.9949146  14.0030740   1.0078250  12.0000000   1.0078250
 NucSpn=           0           1           1           0           0           0           2           1           0           1
 AtZEff=  -0.0000000  -0.0000000  -0.0000000  -0.0000000  -0.0000000  -0.0000000  -0.0000000  -0.0000000  -0.0000000  -0.0000000
 NQMom=    0.0000000   0.0000000   0.0000000   0.0000000   0.0000000   0.0000000   2.0440000   0.0000000   0.0000000   0.0000000
 NMagM=    0.0000000   2.7928460   2.7928460   0.0000000   0.0000000   0.0000000   0.4037610   2.7928460   0.0000000   2.7928460
 AtZNuc=   6.0000000   1.0000000   1.0000000  16.0000000   6.0000000   8.0000000   7.0000000   1.0000000   6.0000000   1.0000000

  Atom        21          22          23          24          25          26          27          28          29          30
 IAtWgt=           1           1          12           1           1           1          12          16          14           1
 AtmWgt=   1.0078250   1.0078250  12.0000000   1.0078250   1.0078250   1.0078250  12.0000000  15.9949146  14.0030740   1.0078250
 NucSpn=           1           1           0           1           1           1           0           0           2           1
 AtZEff=  -0.0000000  -0.0000000  -0.0000000  -0.0000000  -0.0000000  -0.0000000  -0.0000000  -0.0000000  -0.0000000  -0.0000000
 NQMom=    0.0000000   0.0000000   0.0000000   0.0000000   0.0000000   0.0000000   0.0000000   0.0000000   2.0440000   0.0000000
 NMagM=    2.7928460   2.7928460   0.0000000   2.7928460   2.7928460   2.7928460   0.0000000   0.0000000   0.4037610   2.7928460
 AtZNuc=   1.0000000   1.0000000   6.0000000   1.0000000   1.0000000   1.0000000   6.0000000   8.0000000   7.0000000   1.0000000

  Atom        31          32          33          34          35          36          37          38          39          40
 IAtWgt=          12           1          12           1           1          12          16          12          16          14
 AtmWgt=  12.0000000   1.0078250  12.0000000   1.0078250   1.0078250  12.0000000  15.9949146  12.0000000  15.9949146  14.0030740
 NucSpn=           0           1           0           1           1           0           0           0           0           2
 AtZEff=  -0.0000000  -0.0000000  -0.0000000  -0.0000000  -0.0000000  -0.0000000  -0.0000000  -0.0000000  -0.0000000  -0.0000000
 NQMom=    0.0000000   0.0000000   0.0000000   0.0000000   0.0000000   0.0000000   0.0000000   0.0000000   0.0000000   2.0440000
 NMagM=    0.0000000   2.7928460   0.0000000   2.7928460   2.7928460   0.0000000   0.0000000   0.0000000   0.0000000   0.4037610
 AtZNuc=   6.0000000   1.0000000   6.0000000   1.0000000   1.0000000   6.0000000   8.0000000   6.0000000   8.0000000   7.0000000

  Atom        41          42          43          44          45
 IAtWgt=           1          12           1           1           1
 AtmWgt=   1.0078250  12.0000000   1.0078250   1.0078250   1.0078250
 NucSpn=           1           0           1           1           1
 AtZEff=  -0.0000000  -0.0000000  -0.0000000  -0.0000000  -0.0000000
 NQMom=    0.0000000   0.0000000   0.0000000   0.0000000   0.0000000
 NMagM=    2.7928460   0.0000000   2.7928460   2.7928460   2.7928460
 AtZNuc=   1.0000000   6.0000000   1.0000000   1.0000000   1.0000000
 Leave Link  101 at Tue Jun  9 13:38:05 2026, MaxMem=    67108864 cpu:               2.9 elap:               0.2
 (Enter /software/local/apps/gaussian-16.0/g16/l103.exe)

 GradGradGradGradGradGradGradGradGradGradGradGradGradGradGradGradGradGrad
 Berny optimization.
 Initialization pass.
                           ----------------------------
                           !    Initial Parameters    !
                           ! (Angstroms and Degrees)  !
 --------------------------                            --------------------------
 ! Name  Definition              Value          Derivative Info.                !
 --------------------------------------------------------------------------------
 ! X1    R(1,-1)               108.978          Frozen                          !
 ! Y1    R(1,-2)                90.912          Frozen                          !
 ! Z1    R(1,-3)                76.229          Frozen                          !
 ! X2    R(2,-1)               109.797          Frozen                          !
 ! Y2    R(2,-2)                91.284          Frozen                          !
 ! Z2    R(2,-3)                75.613          Frozen                          !
 ! X3    R(3,-1)               109.044          Frozen                          !
 ! Y3    R(3,-2)                89.827          Frozen                          !
 ! Z3    R(3,-3)                76.305          Frozen                          !
 ! X4    R(4,-1)               109.044          Frozen                          !
 ! Y4    R(4,-2)                91.35           Frozen                          !
 ! Z4    R(4,-3)                77.225          Frozen                          !
 ! X5    R(5,-1)               107.65           Frozen                          !
 ! Y5    R(5,-2)                91.296          Frozen                          !
 ! Z5    R(5,-3)                75.594          Frozen                          !
 ! X6    R(6,-1)               106.608          Frozen                          !
 ! Y6    R(6,-2)                91.165          Frozen                          !
 ! Z6    R(6,-3)                76.232          Frozen                          !
 ! X7    R(7,-1)               107.625          Frozen                          !
 ! Y7    R(7,-2)                91.773          Frozen                          !
 ! Z7    R(7,-3)                74.347          Frozen                          !
 ! X9    R(9,-1)               106.36           Frozen                          !
 ! Y9    R(9,-2)                92.152          Frozen                          !
 ! Z9    R(9,-3)                73.707          Frozen                          !
 ! X15   R(15,-1)              105.327          Frozen                          !
 ! Y15   R(15,-2)               91.053          Frozen                          !
 ! Z15   R(15,-3)               73.945          Frozen                          !
 ! X16   R(16,-1)              105.631          Frozen                          !
 ! Y16   R(16,-2)               89.891          Frozen                          !
 ! Z16   R(16,-3)               74.081          Frozen                          !
 ! X17   R(17,-1)              104.036          Frozen                          !
 ! Y17   R(17,-2)               91.389          Frozen                          !
 ! Z17   R(17,-3)               74.005          Frozen                          !
 ! X18   R(18,-1)              103.777          Frozen                          !
 ! Y18   R(18,-2)               92.359          Frozen                          !
 ! Z18   R(18,-3)               73.892          Frozen                          !
 ! X19   R(19,-1)              103.023          Frozen                          !
 ! Y19   R(19,-2)               90.378          Frozen                          !
 ! Z19   R(19,-3)               74.229          Frozen                          !
 ! X20   R(20,-1)              103.503          Frozen                          !
 ! Y20   R(20,-2)               89.423          Frozen                          !
 ! Z20   R(20,-3)               74.441          Frozen                          !
 ! X21   R(21,-1)              102.402          Frozen                          !
 ! Y21   R(21,-2)               90.283          Frozen                          !
 ! Z21   R(21,-3)               73.339          Frozen                          !
 ! X22   R(22,-1)              102.402          Frozen                          !
 ! Y22   R(22,-2)               90.668          Frozen                          !
 ! Z22   R(22,-3)               75.077          Frozen                          !
 ! X23   R(23,-1)              103.732          Frozen                          !
 ! Y23   R(23,-2)               96.23           Frozen                          !
 ! Z23   R(23,-3)               75.211          Frozen                          !
 ! X24   R(24,-1)              103.565          Frozen                          !
 ! Y24   R(24,-2)               97.307          Frozen                          !
 ! Z24   R(24,-3)               75.258          Frozen                          !
 ! X25   R(25,-1)              103.538          Frozen                          !
 ! Y25   R(25,-2)               95.79           Frozen                          !
 ! Z25   R(25,-3)               76.189          Frozen                          !
 ! X26   R(26,-1)              103.061          Frozen                          !
 ! Y26   R(26,-2)               95.79           Frozen                          !
 ! Z26   R(26,-3)               74.474          Frozen                          !
 ! X27   R(27,-1)              105.175          Frozen                          !
 ! Y27   R(27,-2)               95.958          Frozen                          !
 ! Z27   R(27,-3)               74.81           Frozen                          !
 ! X28   R(28,-1)              105.512          Frozen                          !
 ! Y28   R(28,-2)               94.824          Frozen                          !
 ! Z28   R(28,-3)               74.478          Frozen                          !
 ! X29   R(29,-1)              106.065          Frozen                          !
 ! Y29   R(29,-2)               96.953          Frozen                          !
 ! Z29   R(29,-3)               74.822          Frozen                          !
 ! X31   R(31,-1)              107.162          Frozen                          !
 ! Y31   R(31,-2)               96.768          Frozen                          !
 ! Z31   R(31,-3)               74.522          Frozen                          !
 ! X38   R(38,-1)              108.053          Frozen                          !
 ! Y38   R(38,-2)               98.083          Frozen                          !
 ! Z38   R(38,-3)               74.735          Frozen                          !
 ! X39   R(39,-1)              107.547          Frozen                          !
 ! Y39   R(39,-2)               99.116          Frozen                          !
 ! Z39   R(39,-3)               75.167          Frozen                          !
 ! X40   R(40,-1)              109.355          Frozen                          !
 ! Y40   R(40,-2)               98.056          Frozen                          !
 ! Z40   R(40,-3)               74.441          Frozen                          !
 ! X41   R(41,-1)              109.759          Frozen                          !
 ! Y41   R(41,-2)               97.201          Frozen                          !
 ! Z41   R(41,-3)               74.086          Frozen                          !
 ! X42   R(42,-1)              110.176          Frozen                          !
 ! Y42   R(42,-2)               99.235          Frozen                          !
 ! Z42   R(42,-3)               74.627          Frozen                          !
 ! X43   R(43,-1)              111.228          Frozen                          !
 ! Y43   R(43,-2)               98.956          Frozen                          !
 ! Z43   R(43,-3)               74.583          Frozen                          !
 ! X44   R(44,-1)              109.958          Frozen                          !
 ! Y44   R(44,-2)               99.68           Frozen                          !
 ! Z44   R(44,-3)               75.598          Frozen                          !
 ! X45   R(45,-1)              109.958          Frozen                          !
 ! Y45   R(45,-2)               99.957          Frozen                          !
 ! Z45   R(45,-3)               73.84           Frozen                          !
 ! R1    R(1,2)                  1.0902         estimate D2E/DX2                !
 ! R2    R(1,3)                  1.0897         estimate D2E/DX2                !
 ! R3    R(1,4)                  1.0901         estimate D2E/DX2                !
 ! R4    R(1,5)                  1.5213         estimate D2E/DX2                !
 ! R5    R(5,6)                  1.2288         estimate D2E/DX2                !
 ! R6    R(5,7)                  1.3354         estimate D2E/DX2                !
 ! R7    R(7,8)                  1.0201         estimate D2E/DX2                !
 ! R8    R(7,9)                  1.4675         estimate D2E/DX2                !
 ! R9    R(9,10)                 1.0895         estimate D2E/DX2                !
 ! R10   R(9,11)                 1.5726         estimate D2E/DX2                !
 ! R11   R(9,15)                 1.5269         estimate D2E/DX2                !
 ! R12   R(11,12)                1.0899         estimate D2E/DX2                !
 ! R13   R(11,13)                1.0901         estimate D2E/DX2                !
 ! R14   R(11,14)                1.8858         estimate D2E/DX2                !
 ! R15   R(14,36)                2.1406         estimate D2E/DX2                !
 ! R16   R(15,16)                1.2088         estimate D2E/DX2                !
 ! R17   R(15,17)                1.3354         estimate D2E/DX2                !
 ! R18   R(17,18)                1.0103         estimate D2E/DX2                !
 ! R19   R(17,19)                1.4486         estimate D2E/DX2                !
 ! R20   R(19,20)                1.0897         estimate D2E/DX2                !
 ! R21   R(19,21)                1.0894         estimate D2E/DX2                !
 ! R22   R(19,22)                1.0903         estimate D2E/DX2                !
 ! R23   R(23,24)                1.0909         estimate D2E/DX2                !
 ! R24   R(23,25)                1.0898         estimate D2E/DX2                !
 ! R25   R(23,26)                1.0895         estimate D2E/DX2                !
 ! R26   R(23,27)                1.5222         estimate D2E/DX2                !
 ! R27   R(27,28)                1.2287         estimate D2E/DX2                !
 ! R28   R(27,29)                1.335          estimate D2E/DX2                !
 ! R29   R(29,30)                1.0511         estimate D2E/DX2                !
 ! R30   R(29,31)                1.1522         estimate D2E/DX2                !
 ! R31   R(31,32)                1.1204         estimate D2E/DX2                !
 ! R32   R(31,33)                1.586          estimate D2E/DX2                !
 ! R33   R(31,38)                1.6026         estimate D2E/DX2                !
 ! R34   R(33,34)                1.1132         estimate D2E/DX2                !
 ! R35   R(33,35)                1.1109         estimate D2E/DX2                !
 ! R36   R(33,36)                1.5462         estimate D2E/DX2                !
 ! R37   R(36,37)                1.3955         estimate D2E/DX2                !
 ! R38   R(38,39)                1.2287         estimate D2E/DX2                !
 ! R39   R(38,40)                1.3351         estimate D2E/DX2                !
 ! R40   R(40,41)                1.0101         estimate D2E/DX2                !
 ! R41   R(40,42)                1.4487         estimate D2E/DX2                !
 ! R42   R(42,43)                1.0893         estimate D2E/DX2                !
 ! R43   R(42,44)                1.0901         estimate D2E/DX2                !
 ! R44   R(42,45)                1.09           estimate D2E/DX2                !
 ! A1    A(2,1,3)              109.4911         estimate D2E/DX2                !
 ! A2    A(2,1,4)              109.4922         estimate D2E/DX2                !
 ! A3    A(2,1,5)              109.4998         estimate D2E/DX2                !
 ! A4    A(3,1,4)              109.4328         estimate D2E/DX2                !
 ! A5    A(3,1,5)              109.4709         estimate D2E/DX2                !
 ! A6    A(4,1,5)              109.4405         estimate D2E/DX2                !
 ! A7    A(1,5,6)              119.7761         estimate D2E/DX2                !
 ! A8    A(1,5,7)              119.756          estimate D2E/DX2                !
 ! A9    A(6,5,7)              120.4679         estimate D2E/DX2                !
 ! A10   A(5,7,8)              121.0006         estimate D2E/DX2                !
 ! A11   A(5,7,9)              121.0418         estimate D2E/DX2                !
 ! A12   A(8,7,9)              117.9575         estimate D2E/DX2                !
 ! A13   A(7,9,10)             109.2411         estimate D2E/DX2                !
 ! A14   A(7,9,11)             111.6217         estimate D2E/DX2                !
 ! A15   A(7,9,15)             109.2271         estimate D2E/DX2                !
 ! A16   A(10,9,11)            108.6297         estimate D2E/DX2                !
 ! A17   A(10,9,15)            112.2861         estimate D2E/DX2                !
 ! A18   A(11,9,15)            105.8274         estimate D2E/DX2                !
 ! A19   A(9,11,12)            109.4742         estimate D2E/DX2                !
 ! A20   A(9,11,13)            109.4965         estimate D2E/DX2                !
 ! A21   A(9,11,14)            109.9481         estimate D2E/DX2                !
 ! A22   A(12,11,13)           109.438          estimate D2E/DX2                !
 ! A23   A(12,11,14)           106.6044         estimate D2E/DX2                !
 ! A24   A(13,11,14)           111.821          estimate D2E/DX2                !
 ! A25   A(11,14,36)            98.492          estimate D2E/DX2                !
 ! A26   A(9,15,16)            122.6349         estimate D2E/DX2                !
 ! A27   A(9,15,17)            118.6821         estimate D2E/DX2                !
 ! A28   A(16,15,17)           118.683          estimate D2E/DX2                !
 ! A29   A(15,17,18)           118.9725         estimate D2E/DX2                !
 ! A30   A(15,17,19)           120.4911         estimate D2E/DX2                !
 ! A31   A(18,17,19)           120.5364         estimate D2E/DX2                !
 ! A32   A(17,19,20)           109.4938         estimate D2E/DX2                !
 ! A33   A(17,19,21)           109.4607         estimate D2E/DX2                !
 ! A34   A(17,19,22)           109.4459         estimate D2E/DX2                !
 ! A35   A(20,19,21)           109.4889         estimate D2E/DX2                !
 ! A36   A(20,19,22)           109.4312         estimate D2E/DX2                !
 ! A37   A(21,19,22)           109.5067         estimate D2E/DX2                !
 ! A38   A(24,23,25)           109.4316         estimate D2E/DX2                !
 ! A39   A(24,23,26)           109.486          estimate D2E/DX2                !
 ! A40   A(24,23,27)           109.4443         estimate D2E/DX2                !
 ! A41   A(25,23,26)           109.5339         estimate D2E/DX2                !
 ! A42   A(25,23,27)           109.4518         estimate D2E/DX2                !
 ! A43   A(26,23,27)           109.4797         estimate D2E/DX2                !
 ! A44   A(23,27,28)           119.7423         estimate D2E/DX2                !
 ! A45   A(23,27,29)           119.7642         estimate D2E/DX2                !
 ! A46   A(28,27,29)           120.4935         estimate D2E/DX2                !
 ! A47   A(27,29,30)           105.3292         estimate D2E/DX2                !
 ! A48   A(27,29,31)           120.8437         estimate D2E/DX2                !
 ! A49   A(30,29,31)           108.7445         estimate D2E/DX2                !
 ! A50   A(29,31,32)           106.9218         estimate D2E/DX2                !
 ! A51   A(29,31,33)           117.2022         estimate D2E/DX2                !
 ! A52   A(29,31,38)           111.2822         estimate D2E/DX2                !
 ! A53   A(32,31,33)           108.1354         estimate D2E/DX2                !
 ! A54   A(32,31,38)           100.6071         estimate D2E/DX2                !
 ! A55   A(33,31,38)           111.214          estimate D2E/DX2                !
 ! A56   A(31,33,34)           111.5399         estimate D2E/DX2                !
 ! A57   A(31,33,35)           111.9607         estimate D2E/DX2                !
 ! A58   A(31,33,36)           109.3266         estimate D2E/DX2                !
 ! A59   A(34,33,35)           105.2282         estimate D2E/DX2                !
 ! A60   A(34,33,36)           109.5034         estimate D2E/DX2                !
 ! A61   A(35,33,36)           109.1859         estimate D2E/DX2                !
 ! A62   A(14,36,33)            88.0931         estimate D2E/DX2                !
 ! A63   A(14,36,37)           144.35           estimate D2E/DX2                !
 ! A64   A(33,36,37)           110.8695         estimate D2E/DX2                !
 ! A65   A(31,38,39)           120.5041         estimate D2E/DX2                !
 ! A66   A(31,38,40)           119.7574         estimate D2E/DX2                !
 ! A67   A(39,38,40)           119.7385         estimate D2E/DX2                !
 ! A68   A(38,40,41)           118.985          estimate D2E/DX2                !
 ! A69   A(38,40,42)           120.5279         estimate D2E/DX2                !
 ! A70   A(41,40,42)           120.4871         estimate D2E/DX2                !
 ! A71   A(40,42,43)           109.4932         estimate D2E/DX2                !
 ! A72   A(40,42,44)           109.466          estimate D2E/DX2                !
 ! A73   A(40,42,45)           109.4522         estimate D2E/DX2                !
 ! A74   A(43,42,44)           109.4919         estimate D2E/DX2                !
 ! A75   A(43,42,45)           109.4901         estimate D2E/DX2                !
 ! A76   A(44,42,45)           109.4338         estimate D2E/DX2                !
 ! D1    D(2,1,5,6)           -168.2279         estimate D2E/DX2                !
 ! D2    D(2,1,5,7)             11.7777         estimate D2E/DX2                !
 ! D3    D(3,1,5,6)             71.7304         estimate D2E/DX2                !
 ! D4    D(3,1,5,7)           -108.264          estimate D2E/DX2                !
 ! D5    D(4,1,5,6)            -48.2036         estimate D2E/DX2                !
 ! D6    D(4,1,5,7)            131.802          estimate D2E/DX2                !
 ! D7    D(1,5,7,8)             -0.0002         estimate D2E/DX2                !
 ! D8    D(1,5,7,9)            179.9939         estimate D2E/DX2                !
 ! D9    D(6,5,7,8)           -179.9946         estimate D2E/DX2                !
 ! D10   D(6,5,7,9)             -0.0005         estimate D2E/DX2                !
 ! D11   D(5,7,9,10)            76.9567         estimate D2E/DX2                !
 ! D12   D(5,7,9,11)          -162.8905         estimate D2E/DX2                !
 ! D13   D(5,7,9,15)           -46.2138         estimate D2E/DX2                !
 ! D14   D(8,7,9,10)          -103.049          estimate D2E/DX2                !
 ! D15   D(8,7,9,11)            17.1038         estimate D2E/DX2                !
 ! D16   D(8,7,9,15)           133.7805         estimate D2E/DX2                !
 ! D17   D(7,9,11,12)           18.1145         estimate D2E/DX2                !
 ! D18   D(7,9,11,13)          138.0911         estimate D2E/DX2                !
 ! D19   D(7,9,11,14)          -98.6798         estimate D2E/DX2                !
 ! D20   D(10,9,11,12)         138.6259         estimate D2E/DX2                !
 ! D21   D(10,9,11,13)        -101.3975         estimate D2E/DX2                !
 ! D22   D(10,9,11,14)          21.8315         estimate D2E/DX2                !
 ! D23   D(15,9,11,12)        -100.6077         estimate D2E/DX2                !
 ! D24   D(15,9,11,13)          19.3689         estimate D2E/DX2                !
 ! D25   D(15,9,11,14)         142.5979         estimate D2E/DX2                !
 ! D26   D(7,9,15,16)          -29.5492         estimate D2E/DX2                !
 ! D27   D(7,9,15,17)          150.4664         estimate D2E/DX2                !
 ! D28   D(10,9,15,16)        -150.8901         estimate D2E/DX2                !
 ! D29   D(10,9,15,17)          29.1255         estimate D2E/DX2                !
 ! D30   D(11,9,15,16)          90.7486         estimate D2E/DX2                !
 ! D31   D(11,9,15,17)         -89.2359         estimate D2E/DX2                !
 ! D32   D(9,11,14,36)          38.4623         estimate D2E/DX2                !
 ! D33   D(12,11,14,36)        -80.1136         estimate D2E/DX2                !
 ! D34   D(13,11,14,36)        160.3178         estimate D2E/DX2                !
 ! D35   D(11,14,36,33)       -152.6544         estimate D2E/DX2                !
 ! D36   D(11,14,36,37)         82.9334         estimate D2E/DX2                !
 ! D37   D(9,15,17,18)          -0.0211         estimate D2E/DX2                !
 ! D38   D(9,15,17,19)         179.9944         estimate D2E/DX2                !
 ! D39   D(16,15,17,18)        179.9938         estimate D2E/DX2                !
 ! D40   D(16,15,17,19)          0.0093         estimate D2E/DX2                !
 ! D41   D(15,17,19,20)          6.5723         estimate D2E/DX2                !
 ! D42   D(15,17,19,21)       -113.4567         estimate D2E/DX2                !
 ! D43   D(15,17,19,22)        126.5217         estimate D2E/DX2                !
 ! D44   D(18,17,19,20)       -173.4119         estimate D2E/DX2                !
 ! D45   D(18,17,19,21)         66.559          estimate D2E/DX2                !
 ! D46   D(18,17,19,22)        -53.4625         estimate D2E/DX2                !
 ! D47   D(24,23,27,28)       -167.6012         estimate D2E/DX2                !
 ! D48   D(24,23,27,29)         12.4189         estimate D2E/DX2                !
 ! D49   D(25,23,27,28)         72.4757         estimate D2E/DX2                !
 ! D50   D(25,23,27,29)       -107.5042         estimate D2E/DX2                !
 ! D51   D(26,23,27,28)        -47.5943         estimate D2E/DX2                !
 ! D52   D(26,23,27,29)        132.4258         estimate D2E/DX2                !
 ! D53   D(23,27,29,30)        -56.5102         estimate D2E/DX2                !
 ! D54   D(23,27,29,31)       -179.9995         estimate D2E/DX2                !
 ! D55   D(28,27,29,30)        123.51           estimate D2E/DX2                !
 ! D56   D(28,27,29,31)          0.0207         estimate D2E/DX2                !
 ! D57   D(27,29,31,32)        -66.2902         estimate D2E/DX2                !
 ! D58   D(27,29,31,33)         55.1884         estimate D2E/DX2                !
 ! D59   D(27,29,31,38)       -175.2554         estimate D2E/DX2                !
 ! D60   D(30,29,31,32)        171.8527         estimate D2E/DX2                !
 ! D61   D(30,29,31,33)        -66.6687         estimate D2E/DX2                !
 ! D62   D(30,29,31,38)         62.8875         estimate D2E/DX2                !
 ! D63   D(29,31,33,34)          9.5328         estimate D2E/DX2                !
 ! D64   D(29,31,33,35)        127.155          estimate D2E/DX2                !
 ! D65   D(29,31,33,36)       -111.7188         estimate D2E/DX2                !
 ! D66   D(32,31,33,34)        130.3775         estimate D2E/DX2                !
 ! D67   D(32,31,33,35)       -112.0003         estimate D2E/DX2                !
 ! D68   D(32,31,33,36)          9.1259         estimate D2E/DX2                !
 ! D69   D(38,31,33,34)       -120.0555         estimate D2E/DX2                !
 ! D70   D(38,31,33,35)         -2.4333         estimate D2E/DX2                !
 ! D71   D(38,31,33,36)        118.6929         estimate D2E/DX2                !
 ! D72   D(29,31,38,39)         -0.0874         estimate D2E/DX2                !
 ! D73   D(29,31,38,40)        179.9056         estimate D2E/DX2                !
 ! D74   D(32,31,38,39)       -113.0883         estimate D2E/DX2                !
 ! D75   D(32,31,38,40)         66.9046         estimate D2E/DX2                !
 ! D76   D(33,31,38,39)        132.557          estimate D2E/DX2                !
 ! D77   D(33,31,38,40)        -47.4501         estimate D2E/DX2                !
 ! D78   D(31,33,36,14)        139.3132         estimate D2E/DX2                !
 ! D79   D(31,33,36,37)        -71.657          estimate D2E/DX2                !
 ! D80   D(34,33,36,14)         16.8352         estimate D2E/DX2                !
 ! D81   D(34,33,36,37)        165.8649         estimate D2E/DX2                !
 ! D82   D(35,33,36,14)        -97.8911         estimate D2E/DX2                !
 ! D83   D(35,33,36,37)         51.1386         estimate D2E/DX2                !
 ! D84   D(31,38,40,41)          0.0487         estimate D2E/DX2                !
 ! D85   D(31,38,40,42)        179.9952         estimate D2E/DX2                !
 ! D86   D(39,38,40,41)       -179.9583         estimate D2E/DX2                !
 ! D87   D(39,38,40,42)         -0.0118         estimate D2E/DX2                !
 ! D88   D(38,40,42,43)        165.5884         estimate D2E/DX2                !
 ! D89   D(38,40,42,44)         45.5528         estimate D2E/DX2                !
 ! D90   D(38,40,42,45)        -74.3866         estimate D2E/DX2                !
 ! D91   D(41,40,42,43)        -14.466          estimate D2E/DX2                !
 ! D92   D(41,40,42,44)       -134.5015         estimate D2E/DX2                !
 ! D93   D(41,40,42,45)        105.5591         estimate D2E/DX2                !
 --------------------------------------------------------------------------------
 Trust Radius=3.00D-01 FncErr=1.00D-07 GrdErr=1.00D-06 EigMax=2.50D+02 EigMin=1.00D-04
 Number of steps in this run=    270 maximum allowed number of steps=    270.
 GradGradGradGradGradGradGradGradGradGradGradGradGradGradGradGradGradGrad

 Leave Link  103 at Tue Jun  9 13:38:05 2026, MaxMem=    67108864 cpu:               0.2 elap:               0.0
 (Enter /software/local/apps/gaussian-16.0/g16/l202.exe)
                          Input orientation:                          
 ---------------------------------------------------------------------
 Center     Atomic      Atomic             Coordinates (Angstroms)
 Number     Number       Type             X           Y           Z
 ---------------------------------------------------------------------
      1          6           0      108.978000   90.912000   76.229000
      2          1           0      109.797000   91.284000   75.613000
      3          1           0      109.044000   89.827000   76.305000
      4          1           0      109.044000   91.350000   77.225000
      5          6           0      107.650000   91.296000   75.594000
      6          8           0      106.608000   91.165000   76.232000
      7          7           0      107.625000   91.773000   74.347000
      8          1           0      108.485000   91.885000   73.810000
      9          6           0      106.360000   92.152000   73.707000
     10          1           0      106.035000   93.116000   74.097000
     11          6           0      106.512000   92.267000   72.146000
     12          1           0      107.413000   91.742000   71.829000
     13          1           0      105.643000   91.821000   71.662000
     14         16           0      106.739000   94.073000   71.653000
     15          6           0      105.327000   91.053000   73.945000
     16          8           0      105.631000   89.891000   74.081000
     17          7           0      104.036000   91.389000   74.005000
     18          1           0      103.777000   92.359000   73.892000
     19          6           0      103.023000   90.378000   74.229000
     20          1           0      103.503000   89.423000   74.441000
     21          1           0      102.402000   90.283000   73.339000
     22          1           0      102.402000   90.668000   75.077000
     23          6           0      103.732000   96.230000   75.211000
     24          1           0      103.565000   97.307000   75.258000
     25          1           0      103.538000   95.790000   76.189000
     26          1           0      103.061000   95.790000   74.474000
     27          6           0      105.175000   95.958000   74.810000
     28          8           0      105.512000   94.824000   74.478000
     29          7           0      106.065000   96.953000   74.822000
     30          1           0      105.663000   97.693000   74.193000
     31          6           0      107.162000   96.768000   74.522000
     32          1           0      107.603000   96.092000   75.299000
     33          6           0      107.425000   96.121000   73.098000
     34          1           0      106.494000   96.081000   72.489000
     35          1           0      108.142000   96.719000   72.496000
     36          6           0      107.984000   94.691000   73.281000
     37          8           0      109.296000   94.727000   73.755000
     38          6           0      108.053000   98.083000   74.735000
     39          8           0      107.547000   99.116000   75.167000
     40          7           0      109.355000   98.056000   74.441000
     41          1           0      109.759000   97.201000   74.086000
     42          6           0      110.176000   99.235000   74.627000
     43          1           0      111.228000   98.956000   74.583000
     44          1           0      109.958000   99.680000   75.598000
     45          1           0      109.958000   99.957000   73.840000
 ---------------------------------------------------------------------
                    Distance matrix (angstroms):
                    1          2          3          4          5
     1  C    0.000000
     2  H    1.090230   0.000000
     3  H    1.089659   1.780090   0.000000
     4  H    1.090053   1.780424   1.779306   0.000000
     5  C    1.521271   2.147118   2.146327   2.146232   0.000000
     6  O    2.383468   3.250699   2.780228   2.637114   1.228808
     7  N    2.472621   2.561144   3.103907   3.236568   1.335351
     8  H    2.653552   2.309406   3.282205   3.501561   2.055919
     9  C    3.840834   4.024827   4.399896   4.497042   2.440821
    10  H    4.250210   4.450520   4.974622   4.685853   2.856857
    11  C    4.958636   4.876228   5.446274   5.748752   3.758535
    12  H    4.743219   4.495762   5.134390   5.650720   3.798725
    13  H    5.727652   5.757993   6.091000   6.537248   4.445706
    14  S    5.995400   5.728131   6.706910   6.616263   4.906438
    15  C    4.308867   4.776660   4.570423   4.966155   2.859122
    16  O    4.105941   4.652207   4.074168   4.864359   2.887829
    17  N    5.440319   5.982124   5.727993   5.953989   3.948996
    18  H    5.882668   6.352784   6.322569   6.314132   4.361984
    19  C    6.304537   6.973046   6.392638   6.795089   4.910711
    20  H    5.948923   6.667184   5.860068   6.493587   4.694161
    21  H    7.210514   7.801224   7.288433   7.768890   5.801095
    22  H    6.680600   7.439945   6.806719   7.013928   5.310666
    23  C    7.539096   7.836373   8.391221   7.489188   6.312034
    24  H    8.434420   8.674121   9.330919   8.329128   7.275455
    25  H    7.306852   7.733750   8.117072   7.148631   6.120344
    26  H    7.866753   8.183829   8.643276   7.942159   6.519920
    27  C    6.475993   6.622233   7.402253   6.483444   5.336153
    28  O    5.512069   5.672834   6.386154   5.664778   4.273556
    29  N    6.852656   6.833086   7.864706   6.785459   5.925357
    30  H    7.817703   7.757682   8.818484   7.801143   6.843433
    31  C    6.364310   6.181243   7.409352   6.340572   5.597331
    32  H    5.439478   5.294251   6.506823   5.317191   4.805294
    33  C    6.272850   5.945433   7.247099   6.512736   5.437027
    34  H    6.846635   6.609114   7.757375   7.163418   5.820102
    35  H    6.953807   6.480273   7.926017   7.211325   6.264870
    36  C    4.894853   4.509195   5.824661   5.276459   4.121596
    37  O    4.558073   3.944289   5.529557   4.848560   4.226464
    38  C    7.383150   7.073812   8.462182   7.246756   6.853004
    39  O    8.395309   8.160983   9.477424   8.172339   7.832326
    40  N    7.373995   6.886867   8.443202   7.267586   7.066402
    41  H    6.689838   6.110979   7.733761   6.678229   6.449106
    42  C    8.560020   8.020863   9.623283   8.378798   8.387102
    43  H    8.513387   7.871991   9.543258   8.342737   8.514682
    44  H    8.845133   8.397557   9.920527   8.536476   8.695880
    45  H    9.406367   8.853834  10.465587   9.293765   9.133252
                    6          7          8          9         10
     6  O    0.000000
     7  N    2.226472   0.000000
     8  H    3.147636   1.020055   0.000000
     9  C    2.722370   1.467469   2.144184   0.000000
    10  H    2.948382   2.096246   2.756851   1.089505   0.000000
    11  C    4.233086   2.515394   2.609128   1.572593   2.180535
    12  H    4.513021   2.527099   2.256988   2.191756   2.988408
    13  H    4.716615   3.337642   3.562999   2.192185   2.785662
    14  S    5.425944   3.651388   3.533908   2.837745   2.717462
    15  C    2.623714   2.441477   3.268549   1.526936   2.186398
    16  O    2.684102   2.754762   3.492104   2.404878   3.250246
    17  N    3.409529   3.625650   4.480808   2.464133   2.643292
    18  H    3.862097   3.918868   4.732511   2.597877   2.390322
    19  C    4.181340   4.810234   5.681554   3.815118   4.072617
    20  H    3.985382   4.745758   5.592846   4.018538   4.490836
    21  H    5.180522   5.524119   6.308021   4.392533   4.668955
    22  H    4.389928   5.388289   6.331609   4.443526   4.489075
    23  C    5.913378   5.980535   6.590359   5.079221   4.030112
    24  H    6.923344   6.923776   7.463323   6.065612   5.001330
    25  H    5.551340   6.019371   6.736577   5.230588   4.214469
    26  H    6.087889   6.081325   6.716375   4.970587   4.017099
    27  C    5.200810   4.871457   5.342792   4.135997   3.053675
    28  O    4.203096   3.713560   4.233518   2.907427   1.826459
    29  N    5.981964   5.430619   5.706590   4.937596   3.905009
    30  H    6.904008   6.238554   6.468635   5.605773   4.593096
    31  C    5.884269   5.019464   5.108910   4.755511   3.845498
    32  H    5.112323   4.422731   4.549054   4.427540   3.572115
    33  C    5.920421   4.528256   4.424278   4.154283   3.458342
    34  H    6.179814   4.825991   4.828617   4.115643   3.404052
    35  H    6.867151   5.306261   5.021135   5.049706   4.470376
    36  C    4.799422   3.127293   2.899048   3.043908   2.635352
    37  O    5.103794   3.445116   2.955962   3.905512   3.653273
    38  C    7.224109   6.336389   6.281517   6.252983   5.399116
    39  O    8.076778   7.389055   7.416782   7.213728   6.279414
    40  N    7.631486   6.517501   6.263889   6.660781   5.961907
    41  H    7.139147   5.838258   5.473491   6.098298   5.527705
    42  C    8.968364   7.890972   7.586137   8.097972   7.407492
    43  H    9.206698   8.039452   7.623688   8.411850   7.830009
    44  H    9.172223   8.338377   8.131955   8.555248   7.792883
    45  H    9.707905   8.525127   8.205353   8.595424   7.890200
                   11         12         13         14         15
    11  C    0.000000
    12  H    1.089915   0.000000
    13  H    1.090107   1.779615   0.000000
    14  S    1.885793   2.432861   2.504556   0.000000
    15  C    2.472736   3.050176   2.429356   4.045665   0.000000
    16  O    3.188379   3.416611   3.094609   4.961045   1.208783
    17  N    3.218282   4.032830   2.873799   4.476826   1.335357
    18  H    3.246106   4.225773   2.957076   4.089543   2.027547
    19  C    4.481108   5.185807   3.941591   5.839303   2.417581
    20  H    4.733861   5.242939   4.248864   6.314043   2.495975
    21  H    4.717161   5.433130   3.960032   6.001355   3.084763
    22  H    5.295249   6.067380   4.847238   6.490560   3.159948
    23  C    5.729572   6.717874   5.973826   5.133621   5.563103
    24  H    6.615962   7.585141   6.880806   5.790428   6.628811
    25  H    6.132051   7.100108   6.377908   5.811178   5.538522
    26  H    5.453486   6.505554   5.506998   4.943057   5.277667
    27  C    4.744254   5.627580   5.219550   3.995744   4.983007
    28  O    3.602287   4.486616   4.118862   3.170198   3.812972
    29  N    5.414737   6.158707   6.041615   4.334886   6.010306
    30  H    5.861099   6.638177   6.394274   4.551239   6.653120
    31  C    5.130972   5.707532   5.912679   3.958929   6.030040
    32  H    5.075659   5.567719   5.942290   4.256310   5.692540
    33  C    4.073474   4.559183   4.871100   2.598639   5.550102
    34  H    3.829435   4.484092   4.422186   2.188832   5.363078
    35  H    4.753915   5.074136   5.561561   3.111330   6.490561
    36  C    3.054633   3.336307   4.042071   2.140638   4.553635
    37  O    4.048597   4.020621   5.115652   3.374073   5.411778
    38  C    6.550073   7.004478   7.379978   5.225459   7.581298
    39  O    7.556882   8.095436   8.314281   6.199428   8.451843
    40  N    6.845597   7.103556   7.770264   5.520932   8.093998
    41  H    6.216990   6.355977   7.194556   4.982396   7.580264
    42  C    8.254289   8.462152   9.181869   6.877782   9.535358
    43  H    8.539458   8.612812   9.520120   7.251187   9.883636
    44  H    8.873770   9.148455   9.791588   7.573865   9.929940
    45  H    8.595386   8.832178   9.463477   7.054529  10.036852
                   16         17         18         19         20
    16  O    0.000000
    17  N    2.189476   0.000000
    18  H    3.092582   1.010322   0.000000
    19  C    2.657205   1.448608   2.146263   0.000000
    20  H    2.208395   2.083108   2.999429   1.089665   0.000000
    21  H    3.336266   2.082486   2.550727   1.089388   1.779383
    22  H    3.467302   2.083022   2.480792   1.090342   1.779529
    23  C    6.713123   4.998213   4.089795   5.976028   6.854239
    24  H    7.787859   6.067501   5.137471   7.025927   7.926461
    25  H    6.604734   4.938285   4.135830   5.778976   6.602683
    26  H    6.446515   4.532040   3.552906   5.417676   6.382409
    27  C    6.127631   4.777144   3.968618   6.008749   6.755588
    28  O    4.950380   3.768492   3.070805   5.101376   5.762660
    29  N    7.114020   5.978497   5.215811   7.268840   7.963034
    30  H    7.802869   6.513286   5.665611   7.776897   8.551024
    31  C    7.059148   6.242820   5.594140   7.619007   8.206331
    32  H    6.620023   6.042858   5.527496   7.400750   7.875387
    33  C    6.557257   5.890653   5.300093   7.323852   7.877115
    34  H    6.449444   5.509527   4.817030   6.899250   7.555485
    35  H    7.445732   6.895304   6.325476   8.331610   8.861995
    36  C    5.405239   5.197507   4.848752   6.641701   7.012616
    37  O    6.076627   6.234769   6.007125   7.647811   7.884279
    38  C    8.567535   7.840843   7.194373   9.215420   9.786957
    39  O    9.484254   8.566440   7.841911   9.884284  10.527833
    40  N    8.981370   8.539950   7.991952   9.954439  10.429506
    41  H    8.395029   8.157122   7.698501   9.588925   9.988035
    42  C   10.405070   9.982294   9.421614  11.391675  11.867555
    43  H   10.665488  10.455546   9.975735  11.875581  12.270855
    44  H   10.809660  10.312537   9.732021  11.683133  12.174224
    45  H   10.959259  10.416714   9.794747  11.832277  12.369049
                   21         22         23         24         25
    21  H    0.000000
    22  H    1.780132   0.000000
    23  C    6.374958   5.720376   0.000000
    24  H    7.373717   6.742526   1.090884   0.000000
    25  H    6.303971   5.363014   1.089826   1.780106   0.000000
    26  H    5.661233   5.199305   1.089500   1.780438   1.780099
    27  C    6.485291   5.978705   1.522181   2.147698   2.147006
    28  O    5.620507   5.225250   2.383805   3.250307   2.785203
    29  N    7.752790   7.278998   2.473245   2.562306   3.099514
    30  H    8.140733   7.795268   2.627823   2.384287   3.481530
    31  C    8.130948   7.757295   3.539642   3.710879   4.107158
    32  H    8.039682   7.517943   3.874459   4.217031   4.172233
    33  C    7.705248   7.673472   4.256160   4.579497   4.977209
    34  H    7.147291   7.262422   3.880738   4.213013   4.744746
    35  H    8.664892   8.730622   5.201773   5.378040   5.974789
    36  C    7.112844   7.111179   4.916597   5.502685   5.425051
    37  O    8.212760   8.108662   5.944497   6.462180   6.341048
    38  C    9.732554   9.329147   4.725593   4.584523   5.268509
    39  O   10.384339   9.891806   4.783843   4.374596   5.308375
    40  N   10.487046  10.165198   5.961988   5.895133   6.482881
    41  H   10.126311   9.888762   6.207511   6.304796   6.716723
    42  C   11.926119  11.577179   7.134158   6.915249   7.640086
    43  H   12.436508  12.117477   8.000967   7.867426   8.469881
    44  H   12.267837  11.772031   7.128488   6.827677   7.529793
    45  H   12.285374  12.037808   7.384663   7.064253   8.006128
                   26         27         28         29         30
    26  H    0.000000
    27  C    2.147118   0.000000
    28  O    2.634497   1.228718   0.000000
    29  N    3.240014   1.335016   2.226384   0.000000
    30  H    3.235858   1.905009   2.887072   1.051116   0.000000
    31  C    4.216277   2.164997   2.550210   1.152230   1.791889
    32  H    4.626186   2.480375   2.579563   1.826005   2.747733
    33  C    4.587748   2.831963   2.691873   2.348191   2.602855
    34  H    3.976229   2.672439   2.549607   2.527314   2.488518
    35  H    5.531011   3.838855   3.799506   3.127133   3.158152
    36  C    5.183337   3.440002   2.749779   3.342736   3.902664
    37  O    6.365701   4.428434   3.853673   4.066070   4.710381
    38  C    5.499639   3.578286   4.140509   2.288365   2.481525
    39  O    5.627319   3.965703   4.799709   2.644602   2.554028
    40  N    6.689565   4.691499   5.021538   3.490827   3.718082
    41  H    6.855995   4.804402   4.882704   3.774763   4.126830
    42  C    7.906621   5.981824   6.421216   4.705940   4.788871
    43  H    8.759870   6.758575   7.053872   5.543077   5.719833
    44  H    7.997755   6.111572   6.678477   4.816031   4.936519
    45  H    8.082973   6.309516   6.820678   5.014358   4.867990
                   31         32         33         34         35
    31  C    0.000000
    32  H    1.120351   0.000000
    33  C    1.586050   2.208376   0.000000
    34  H    2.247506   3.020944   1.113212   0.000000
    35  H    2.251106   2.922406   1.110899   1.767200   0.000000
    36  C    2.555327   2.486018   1.546244   2.186199   2.180361
    37  O    3.050889   2.667098   2.423948   3.359654   2.623902
    38  C    1.602646   2.117706   2.631273   3.388658   2.623269
    39  O    2.465229   3.027398   3.642207   4.182310   3.637839
    40  N    2.544554   2.768206   3.045123   3.987010   2.653670
    41  H    2.668706   2.711012   2.755014   3.803293   2.318429
    42  C    3.896320   4.117082   4.427509   5.298668   3.874090
    43  H    4.617729   4.675016   4.970439   5.921251   4.345473
    44  H    4.177934   4.302228   5.033147   5.883704   4.657014
    45  H    4.295633   4.755306   4.656345   5.371022   3.948270
                   36         37         38         39         40
    36  C    0.000000
    37  O    1.395463   0.000000
    38  C    3.691144   3.710550   0.000000
    39  O    4.829968   4.931132   1.228718   0.000000
    40  N    3.814245   3.399458   1.335054   2.218004   0.000000
    41  H    3.177853   2.538623   2.027205   3.119091   1.010082
    42  C    5.221543   4.675131   2.417829   2.686522   1.448681
    43  H    5.514432   4.722568   3.296340   3.730471   2.082857
    44  H    5.844252   5.326078   2.631388   2.513320   2.083179
    45  H    5.651541   5.272416   2.818142   2.877695   2.082933
                   41         42         43         44         45
    41  H    0.000000
    42  C    2.145630   0.000000
    43  H    2.342007   1.089257   0.000000
    44  H    2.910530   1.090133   1.779691   0.000000
    45  H    2.774104   1.090035   1.779593   1.779689   0.000000
 Stoichiometry    C13H22N4O5S
 Framework group  C1[X(C13H22N4O5S)]
 Deg. of freedom   129
 Full point group                 C1      NOp   1
 Largest Abelian subgroup         C1      NOp   1
 Largest concise Abelian subgroup C1      NOp   1
                         Standard orientation:                         
 ---------------------------------------------------------------------
 Center     Atomic      Atomic             Coordinates (Angstroms)
 Number     Number       Type             X           Y           Z
 ---------------------------------------------------------------------
      1          6           0        2.278998   -3.395855   -1.789457
      2          1           0        1.655096   -3.974782   -1.108141
      3          1           0        3.269904   -3.845594   -1.845994
      4          1           0        1.826290   -3.389965   -2.781040
      5          6           0        2.398656   -1.967785   -1.279004
      6          8           0        2.874902   -1.098159   -2.004890
      7          7           0        1.985417   -1.668233   -0.045041
      8          1           0        1.588925   -2.383693    0.564406
      9          6           0        2.087716   -0.300206    0.476018
     10          1           0        1.291936    0.307838    0.047022
     11          6           0        1.957282   -0.265633    2.042812
     12          1           0        2.138318   -1.262489    2.444582
     13          1           0        2.689595    0.429563    2.453606
     14         16           0        0.196725    0.200877    2.531710
     15          6           0        3.474719    0.255368    0.161226
     16          8           0        4.452894   -0.448502    0.066896
     17          7           0        3.612673    1.571608   -0.016694
     18          1           0        2.797952    2.164005    0.061062
     19          6           0        4.910553    2.140710   -0.316857
     20          1           0        5.631636    1.338992   -0.473882
     21          1           0        5.235142    2.763528    0.515913
     22          1           0        4.840680    2.747743   -1.219892
     23          6           0       -0.835466    3.452694   -1.304216
     24          1           0       -1.785807    3.983056   -1.379012
     25          1           0       -0.374629    3.393678   -2.290049
     26          1           0       -0.173379    3.987463   -0.624015
     27          6           0       -1.080047    2.046955   -0.774015
     28          8           0       -0.130497    1.362889   -0.399639
     29          7           0       -2.324359    1.566339   -0.719580
     30          1           0       -2.863424    2.256014   -0.137685
     31          6           0       -2.530777    0.504904   -0.321607
     32          1           0       -2.068224   -0.211486   -1.048253
     33          6           0       -1.989650    0.156093    1.127899
     34          1           0       -1.613125    1.062748    1.652730
     35          1           0       -2.789527   -0.249494    1.783484
     36          6           0       -0.851145   -0.883799    1.012572
     37          8           0       -1.355154   -2.135230    0.655904
     38          6           0       -4.078912    0.118419   -0.471214
     39          8           0       -4.876501    0.915780   -0.958878
     40          7           0       -4.505373   -1.079038   -0.063051
     41          1           0       -3.840066   -1.725422    0.336723
     42          6           0       -5.901082   -1.445764   -0.190278
     43          1           0       -6.008723   -2.520587   -0.050104
     44          1           0       -6.260058   -1.170533   -1.182132
     45          1           0       -6.484854   -0.920172    0.565461
 ---------------------------------------------------------------------
 Rotational constants (GHZ):           0.3643643           0.1367608           0.1247741
 Leave Link  202 at Tue Jun  9 13:38:06 2026, MaxMem=    67108864 cpu:               0.3 elap:               0.0
 (Enter /software/local/apps/gaussian-16.0/g16/l301.exe)
 Standard basis: 6-31G(d) (6D, 7F)
 Ernie: Thresh=  0.10000D-02 Tol=  0.10000D-05 Strict=F.
 There are   393 symmetry adapted cartesian basis functions of A   symmetry.
 There are   393 symmetry adapted basis functions of A   symmetry.
   393 basis functions,   756 primitive gaussians,   393 cartesian basis functions
    92 alpha electrons       92 beta electrons
       nuclear repulsion energy      2267.2678349011 Hartrees.
 IExCor=  402 DFT=T Ex+Corr=B3LYP ExCW=0 ScaHFX=  0.200000
 ScaDFX=  0.800000  0.720000  1.000000  0.810000 ScalE2=  1.000000  1.000000
 IRadAn=      5 IRanWt=     -1 IRanGd=            0 ICorTp=0 IEmpDi=  4
 NAtoms=   45 NActive=   45 NUniq=   45 SFac= 1.00D+00 NAtFMM=   60 NAOKFM=F Big=F
 Integral buffers will be    131072 words long.
 Raffenetti 2 integral format.
 Two-electron integral symmetry is turned on.
 Leave Link  301 at Tue Jun  9 13:38:06 2026, MaxMem=    67108864 cpu:               0.8 elap:               0.1
 (Enter /software/local/apps/gaussian-16.0/g16/l302.exe)
 NPDir=0 NMtPBC=     1 NCelOv=     1 NCel=       1 NClECP=     1 NCelD=      1
         NCelK=      1 NCelE2=     1 NClLst=     1 CellRange=     0.0.
 One-electron integrals computed using PRISM.
 One-electron integral symmetry used in STVInt
 NBasis=   393 RedAO= T EigKep=  1.16D-03  NBF=   393
 NBsUse=   393 1.00D-06 EigRej= -1.00D+00 NBFU=   393
 Precomputing XC quadrature grid using
 IXCGrd= 4 IRadAn=           5 IRanWt=          -1 IRanGd=           0 AccXCQ= 0.00D+00.
 Generated NRdTot=       0 NPtTot=           0 NUsed=           0 NTot=          32
 NSgBfM=   388   388   388   388   388 MxSgAt=    45 MxSgA2=    45.
 Leave Link  302 at Tue Jun  9 13:38:08 2026, MaxMem=    67108864 cpu:               8.1 elap:               0.6
 (Enter /software/local/apps/gaussian-16.0/g16/l303.exe)
 DipDrv:  MaxL=1.
 Leave Link  303 at Tue Jun  9 13:38:08 2026, MaxMem=    67108864 cpu:               0.6 elap:               0.1
 (Enter /software/local/apps/gaussian-16.0/g16/l401.exe)
 ExpMin= 1.17D-01 ExpMax= 2.19D+04 ExpMxC= 3.30D+03 IAcc=3 IRadAn=         5 AccDes= 0.00D+00
 Harris functional with IExCor=  402 and IRadAn=       5 diagonalized for initial guess.
 HarFok:  IExCor=  402 AccDes= 0.00D+00 IRadAn=         5 IDoV= 1 UseB2=F ITyADJ=14
 ICtDFT=  3500011 ScaDFX=  1.000000  1.000000  1.000000  1.000000
 FoFCou: FMM=F IPFlag=           0 FMFlag=      100000 FMFlg1=           0
         NFxFlg=           0 DoJE=T BraDBF=F KetDBF=T FulRan=T
         wScrn=  0.000000 ICntrl=       500 IOpCl=  0 I1Cent=   200000004 NGrid=           0
         NMat0=    1 NMatS0=      1 NMatT0=    0 NMatD0=    1 NMtDS0=    0 NMtDT0=    0
 Petite list used in FoFCou.
 Harris En= -1501.75518712431    
 JPrj=0 DoOrth=F DoCkMO=F.
 Leave Link  401 at Tue Jun  9 13:38:10 2026, MaxMem=    67108864 cpu:              26.2 elap:               1.7
 (Enter /software/local/apps/gaussian-16.0/g16/l502.exe)
 Integral symmetry usage will be decided dynamically.
 Closed shell SCF:
 Using DIIS extrapolation, IDIIS=  1040.
 NGot=    67108864 LenX=    66788194 LenY=    66633304
 Requested convergence on RMS density matrix=1.00D-08 within 128 cycles.
 Requested convergence on MAX density matrix=1.00D-06.
 Requested convergence on             energy=1.00D-06.
 No special actions if energy rises.
 Fock matrices will be formed incrementally for  20 cycles.
 Integral accuracy reduced to 1.0D-05 until final iterations.

 Cycle   1  Pass 0  IDiag  1:
 FoFJK:  IHMeth= 1 ICntrl=       0 DoSepK=F KAlg= 0 I1Cent=           0 FoldK=F
 IRaf= 750000000 NMat=       1 IRICut=       1 DoRegI=T DoRafI=F ISym2E= 0 IDoP0=0 IntGTp=1.
 FoFCou: FMM=F IPFlag=           0 FMFlag=      100000 FMFlg1=           0
         NFxFlg=           0 DoJE=F BraDBF=F KetDBF=F FulRan=T
         wScrn=  0.000000 ICntrl=         0 IOpCl=  0 I1Cent=           0 NGrid=           0
         NMat0=    1 NMatS0=      1 NMatT0=    0 NMatD0=    1 NMtDS0=    0 NMtDT0=    0
 Symmetry not used in FoFCou.
 E= -1500.98464735253    
 DIIS: error= 2.73D-02 at cycle   1 NSaved=   1.
 NSaved= 1 IEnMin= 1 EnMin= -1500.98464735253     IErMin= 1 ErrMin= 2.73D-02
 ErrMax= 2.73D-02  0.00D+00 EMaxC= 1.00D-01 BMatC= 8.58D-01 BMatP= 8.58D-01
 IDIUse=3 WtCom= 7.27D-01 WtEn= 2.73D-01
 Coeff-Com:  0.100D+01
 Coeff-En:   0.100D+01
 Coeff:      0.100D+01
 Gap=     0.184 Goal=   None    Shift=    0.000
 GapD=    0.184 DampG=1.000 DampE=0.500 DampFc=0.5000 IDamp=-1.
 Damping current iteration by 5.00D-01
 RMSDP=7.81D-03 MaxDP=3.86D-01              OVMax= 6.62D-01

 Cycle   2  Pass 0  IDiag  1:
 RMSU=  3.89D-03    CP:  9.82D-01
 E= -1500.46443807327     Delta-E=        0.520209279260 Rises=F Damp=T
 DIIS: error= 2.73D-02 at cycle   2 NSaved=   2.
 NSaved= 2 IEnMin= 1 EnMin= -1500.98464735253     IErMin= 2 ErrMin= 2.73D-02
 ErrMax= 2.73D-02  0.00D+00 EMaxC= 1.00D-01 BMatC= 4.77D-01 BMatP= 8.58D-01
 IDIUse=3 WtCom= 7.27D-01 WtEn= 2.73D-01
 Coeff-Com:  0.404D+00 0.596D+00
 Coeff-En:   0.663D+00 0.337D+00
 Coeff:      0.474D+00 0.526D+00
 Gap=     0.173 Goal=   None    Shift=    0.000
 RMSDP=3.72D-03 MaxDP=2.37D-01 DE= 5.20D-01 OVMax= 6.03D-01

 Cycle   3  Pass 0  IDiag  1:
 RMSU=  2.77D-03    CP:  9.77D-01  3.61D-01
 E= -1501.32620194707     Delta-E=       -0.861763873795 Rises=F Damp=F
 DIIS: error= 2.60D-02 at cycle   3 NSaved=   3.
 NSaved= 3 IEnMin= 3 EnMin= -1501.32620194707     IErMin= 3 ErrMin= 2.60D-02
 ErrMax= 2.60D-02  0.00D+00 EMaxC= 1.00D-01 BMatC= 4.04D-01 BMatP= 4.77D-01
 IDIUse=3 WtCom= 7.40D-01 WtEn= 2.60D-01
 EnCoef did     2 forward-backward iterations
 Coeff-Com:  0.228D+00 0.406D+00 0.367D+00
 Coeff-En:   0.198D+00 0.160D+00 0.642D+00
 Coeff:      0.220D+00 0.342D+00 0.438D+00
 Gap=     0.248 Goal=   None    Shift=    0.000
 RMSDP=2.17D-03 MaxDP=1.01D-01 DE=-8.62D-01 OVMax= 1.52D-01

 Cycle   4  Pass 0  IDiag  1:
 RMSU=  1.43D-03    CP:  9.87D-01  3.41D-01  4.13D-01
 E= -1501.69755490081     Delta-E=       -0.371352953749 Rises=F Damp=F
 DIIS: error= 6.70D-03 at cycle   4 NSaved=   4.
 NSaved= 4 IEnMin= 4 EnMin= -1501.69755490081     IErMin= 4 ErrMin= 6.70D-03
 ErrMax= 6.70D-03  0.00D+00 EMaxC= 1.00D-01 BMatC= 3.30D-02 BMatP= 4.04D-01
 IDIUse=3 WtCom= 9.33D-01 WtEn= 6.70D-02
 Coeff-Com:  0.652D-01 0.171D+00 0.209D+00 0.555D+00
 Coeff-En:   0.000D+00 0.000D+00 0.000D+00 0.100D+01
 Coeff:      0.608D-01 0.159D+00 0.195D+00 0.585D+00
 Gap=     0.136 Goal=   None    Shift=    0.000
 RMSDP=9.70D-04 MaxDP=9.06D-02 DE=-3.71D-01 OVMax= 8.94D-02

 Cycle   5  Pass 0  IDiag  1:
 RMSU=  8.30D-04    CP:  9.87D-01  3.62D-01  5.03D-01  7.00D-01
 E= -1501.70954786773     Delta-E=       -0.011992966916 Rises=F Damp=F
 DIIS: error= 5.12D-03 at cycle   5 NSaved=   5.
 NSaved= 5 IEnMin= 5 EnMin= -1501.70954786773     IErMin= 5 ErrMin= 5.12D-03
 ErrMax= 5.12D-03  0.00D+00 EMaxC= 1.00D-01 BMatC= 2.29D-02 BMatP= 3.30D-02
 IDIUse=3 WtCom= 9.49D-01 WtEn= 5.12D-02
 Coeff-Com: -0.133D-01 0.494D-01 0.888D-02 0.424D+00 0.530D+00
 Coeff-En:   0.000D+00 0.000D+00 0.000D+00 0.416D+00 0.584D+00
 Coeff:     -0.126D-01 0.469D-01 0.843D-02 0.424D+00 0.533D+00
 Gap=     0.088 Goal=   None    Shift=    0.000
 RMSDP=5.24D-04 MaxDP=4.88D-02 DE=-1.20D-02 OVMax= 5.15D-02

 Cycle   6  Pass 0  IDiag  1:
 RMSU=  2.46D-04    CP:  9.87D-01  3.62D-01  4.31D-01  9.11D-01  6.51D-01
 E= -1501.73198853508     Delta-E=       -0.022440667354 Rises=F Damp=F
 DIIS: error= 1.40D-03 at cycle   6 NSaved=   6.
 NSaved= 6 IEnMin= 6 EnMin= -1501.73198853508     IErMin= 6 ErrMin= 1.40D-03
 ErrMax= 1.40D-03  0.00D+00 EMaxC= 1.00D-01 BMatC= 1.89D-03 BMatP= 2.29D-02
 IDIUse=3 WtCom= 9.86D-01 WtEn= 1.40D-02
 Coeff-Com: -0.142D-01 0.232D-01-0.183D-01 0.203D+00 0.325D+00 0.481D+00
 Coeff-En:   0.000D+00 0.000D+00 0.000D+00 0.000D+00 0.000D+00 0.100D+01
 Coeff:     -0.140D-01 0.229D-01-0.180D-01 0.200D+00 0.321D+00 0.488D+00
 Gap=     0.091 Goal=   None    Shift=    0.000
 RMSDP=1.59D-04 MaxDP=1.26D-02 DE=-2.24D-02 OVMax= 2.07D-02

 Cycle   7  Pass 0  IDiag  1:
 RMSU=  1.01D-04    CP:  9.87D-01  3.66D-01  4.41D-01  9.05D-01  7.33D-01
                    CP:  6.10D-01
 E= -1501.73330268408     Delta-E=       -0.001314148998 Rises=F Damp=F
 DIIS: error= 9.41D-04 at cycle   7 NSaved=   7.
 NSaved= 7 IEnMin= 7 EnMin= -1501.73330268408     IErMin= 7 ErrMin= 9.41D-04
 ErrMax= 9.41D-04  0.00D+00 EMaxC= 1.00D-01 BMatC= 6.06D-04 BMatP= 1.89D-03
 IDIUse=3 WtCom= 9.91D-01 WtEn= 9.41D-03
 Coeff-Com: -0.829D-02 0.659D-02-0.197D-01 0.650D-01 0.135D+00 0.374D+00
 Coeff-Com:  0.448D+00
 Coeff-En:   0.000D+00 0.000D+00 0.000D+00 0.000D+00 0.000D+00 0.250D+00
 Coeff-En:   0.750D+00
 Coeff:     -0.821D-02 0.653D-02-0.195D-01 0.644D-01 0.134D+00 0.372D+00
 Coeff:      0.451D+00
 Gap=     0.088 Goal=   None    Shift=    0.000
 RMSDP=7.68D-05 MaxDP=6.21D-03 DE=-1.31D-03 OVMax= 7.64D-03

 Cycle   8  Pass 0  IDiag  1:
 RMSU=  4.47D-05    CP:  9.87D-01  3.67D-01  4.34D-01  9.23D-01  7.32D-01
                    CP:  7.53D-01  6.01D-01
 E= -1501.73374442900     Delta-E=       -0.000441744921 Rises=F Damp=F
 DIIS: error= 6.31D-04 at cycle   8 NSaved=   8.
 NSaved= 8 IEnMin= 8 EnMin= -1501.73374442900     IErMin= 8 ErrMin= 6.31D-04
 ErrMax= 6.31D-04  0.00D+00 EMaxC= 1.00D-01 BMatC= 1.36D-04 BMatP= 6.06D-04
 IDIUse=3 WtCom= 9.94D-01 WtEn= 6.31D-03
 Coeff-Com: -0.326D-02 0.179D-02-0.108D-01 0.627D-02 0.311D-01 0.181D+00
 Coeff-Com:  0.358D+00 0.436D+00
 Coeff-En:   0.000D+00 0.000D+00 0.000D+00 0.000D+00 0.000D+00 0.000D+00
 Coeff-En:   0.186D+00 0.814D+00
 Coeff:     -0.324D-02 0.178D-02-0.107D-01 0.623D-02 0.309D-01 0.180D+00
 Coeff:      0.357D+00 0.438D+00
 Gap=     0.088 Goal=   None    Shift=    0.000
 RMSDP=2.77D-05 MaxDP=1.78D-03 DE=-4.42D-04 OVMax= 3.43D-03

 Cycle   9  Pass 0  IDiag  1:
 RMSU=  1.76D-05    CP:  9.87D-01  3.67D-01  4.32D-01  9.22D-01  7.32D-01
                    CP:  7.59D-01  6.58D-01  5.59D-01
 E= -1501.73385393568     Delta-E=       -0.000109506673 Rises=F Damp=F
 DIIS: error= 9.22D-05 at cycle   9 NSaved=   9.
 NSaved= 9 IEnMin= 9 EnMin= -1501.73385393568     IErMin= 9 ErrMin= 9.22D-05
 ErrMax= 9.22D-05  0.00D+00 EMaxC= 1.00D-01 BMatC= 9.26D-06 BMatP= 1.36D-04
 IDIUse=1 WtCom= 1.00D+00 WtEn= 0.00D+00
 Coeff-Com: -0.992D-03 0.505D-03-0.394D-02-0.442D-02 0.789D-03 0.556D-01
 Coeff-Com:  0.156D+00 0.265D+00 0.531D+00
 Coeff:     -0.992D-03 0.505D-03-0.394D-02-0.442D-02 0.789D-03 0.556D-01
 Coeff:      0.156D+00 0.265D+00 0.531D+00
 Gap=     0.088 Goal=   None    Shift=    0.000
 RMSDP=1.05D-05 MaxDP=6.89D-04 DE=-1.10D-04 OVMax= 9.64D-04

 Cycle  10  Pass 0  IDiag  1:
 RMSU=  7.21D-06    CP:  9.87D-01  3.67D-01  4.33D-01  9.22D-01  7.36D-01
                    CP:  7.56D-01  6.94D-01  5.99D-01  7.17D-01
 E= -1501.73386190389     Delta-E=       -0.000007968216 Rises=F Damp=F
 DIIS: error= 4.78D-05 at cycle  10 NSaved=  10.
 NSaved=10 IEnMin=10 EnMin= -1501.73386190389     IErMin=10 ErrMin= 4.78D-05
 ErrMax= 4.78D-05  0.00D+00 EMaxC= 1.00D-01 BMatC= 1.34D-06 BMatP= 9.26D-06
 IDIUse=1 WtCom= 1.00D+00 WtEn= 0.00D+00
 Coeff-Com: -0.146D-03 0.278D-03-0.869D-03-0.317D-02-0.379D-02 0.968D-02
 Coeff-Com:  0.450D-01 0.103D+00 0.326D+00 0.523D+00
 Coeff:     -0.146D-03 0.278D-03-0.869D-03-0.317D-02-0.379D-02 0.968D-02
 Coeff:      0.450D-01 0.103D+00 0.326D+00 0.523D+00
 Gap=     0.088 Goal=   None    Shift=    0.000
 RMSDP=3.79D-06 MaxDP=2.25D-04 DE=-7.97D-06 OVMax= 3.99D-04

 Initial convergence to 1.0D-05 achieved.  Increase integral accuracy.
 Cycle  11  Pass 1  IDiag  1:
 E= -1501.73384448514     Delta-E=        0.000017418750 Rises=F Damp=F
 DIIS: error= 3.21D-05 at cycle   1 NSaved=   1.
 NSaved= 1 IEnMin= 1 EnMin= -1501.73384448514     IErMin= 1 ErrMin= 3.21D-05
 ErrMax= 3.21D-05  0.00D+00 EMaxC= 1.00D-01 BMatC= 6.11D-07 BMatP= 6.11D-07
 IDIUse=1 WtCom= 1.00D+00 WtEn= 0.00D+00
 Coeff-Com:  0.100D+01
 Coeff:      0.100D+01
 Gap=     0.088 Goal=   None    Shift=    0.000
 RMSDP=3.79D-06 MaxDP=2.25D-04 DE= 1.74D-05 OVMax= 2.91D-04

 Cycle  12  Pass 1  IDiag  1:
 RMSU=  1.27D-05    CP:  1.00D+00
 E= -1501.73384422712     Delta-E=        0.000000258027 Rises=F Damp=F
 DIIS: error= 3.74D-05 at cycle   2 NSaved=   2.
 NSaved= 2 IEnMin= 1 EnMin= -1501.73384448514     IErMin= 1 ErrMin= 3.21D-05
 ErrMax= 3.74D-05  0.00D+00 EMaxC= 1.00D-01 BMatC= 1.03D-06 BMatP= 6.11D-07
 IDIUse=1 WtCom= 1.00D+00 WtEn= 0.00D+00
 Coeff-Com:  0.583D+00 0.417D+00
 Coeff:      0.583D+00 0.417D+00
 Gap=     0.088 Goal=   None    Shift=    0.000
 RMSDP=3.32D-06 MaxDP=1.98D-04 DE= 2.58D-07 OVMax= 2.78D-04

 Cycle  13  Pass 1  IDiag  1:
 RMSU=  3.21D-06    CP:  1.00D+00  9.35D-01
 E= -1501.73384485398     Delta-E=       -0.000000626861 Rises=F Damp=F
 DIIS: error= 2.27D-05 at cycle   3 NSaved=   3.
 NSaved= 3 IEnMin= 3 EnMin= -1501.73384485398     IErMin= 3 ErrMin= 2.27D-05
 ErrMax= 2.27D-05  0.00D+00 EMaxC= 1.00D-01 BMatC= 2.55D-07 BMatP= 6.11D-07
 IDIUse=1 WtCom= 1.00D+00 WtEn= 0.00D+00
 Coeff-Com:  0.120D+00 0.316D+00 0.564D+00
 Coeff:      0.120D+00 0.316D+00 0.564D+00
 Gap=     0.088 Goal=   None    Shift=    0.000
 RMSDP=1.52D-06 MaxDP=1.45D-04 DE=-6.27D-07 OVMax= 1.95D-04

 Cycle  14  Pass 1  IDiag  1:
 RMSU=  1.19D-06    CP:  1.00D+00  9.54D-01  7.16D-01
 E= -1501.73384495933     Delta-E=       -0.000000105355 Rises=F Damp=F
 DIIS: error= 1.79D-05 at cycle   4 NSaved=   4.
 NSaved= 4 IEnMin= 4 EnMin= -1501.73384495933     IErMin= 4 ErrMin= 1.79D-05
 ErrMax= 1.79D-05  0.00D+00 EMaxC= 1.00D-01 BMatC= 1.21D-07 BMatP= 2.55D-07
 IDIUse=1 WtCom= 1.00D+00 WtEn= 0.00D+00
 Coeff-Com:  0.935D-02 0.195D+00 0.461D+00 0.334D+00
 Coeff:      0.935D-02 0.195D+00 0.461D+00 0.334D+00
 Gap=     0.088 Goal=   None    Shift=    0.000
 RMSDP=8.23D-07 MaxDP=6.82D-05 DE=-1.05D-07 OVMax= 9.18D-05

 Cycle  15  Pass 1  IDiag  1:
 RMSU=  3.64D-07    CP:  1.00D+00  9.60D-01  7.30D-01  3.86D-01
 E= -1501.73384505891     Delta-E=       -0.000000099576 Rises=F Damp=F
 DIIS: error= 2.35D-06 at cycle   5 NSaved=   5.
 NSaved= 5 IEnMin= 5 EnMin= -1501.73384505891     IErMin= 5 ErrMin= 2.35D-06
 ErrMax= 2.35D-06  0.00D+00 EMaxC= 1.00D-01 BMatC= 5.43D-09 BMatP= 1.21D-07
 IDIUse=1 WtCom= 1.00D+00 WtEn= 0.00D+00
 Coeff-Com: -0.384D-02 0.106D+00 0.263D+00 0.229D+00 0.406D+00
 Coeff:     -0.384D-02 0.106D+00 0.263D+00 0.229D+00 0.406D+00
 Gap=     0.088 Goal=   None    Shift=    0.000
 RMSDP=1.87D-07 MaxDP=9.16D-06 DE=-9.96D-08 OVMax= 1.27D-05

 Cycle  16  Pass 1  IDiag  1:
 RMSU=  1.18D-07    CP:  1.00D+00  9.61D-01  7.29D-01  4.01D-01  6.08D-01
 E= -1501.73384506350     Delta-E=       -0.000000004595 Rises=F Damp=F
 DIIS: error= 3.00D-07 at cycle   6 NSaved=   6.
 NSaved= 6 IEnMin= 6 EnMin= -1501.73384506350     IErMin= 6 ErrMin= 3.00D-07
 ErrMax= 3.00D-07  0.00D+00 EMaxC= 1.00D-01 BMatC= 5.60D-11 BMatP= 5.43D-09
 IDIUse=1 WtCom= 1.00D+00 WtEn= 0.00D+00
 Coeff-Com: -0.164D-02 0.275D-01 0.662D-01 0.666D-01 0.128D+00 0.714D+00
 Coeff:     -0.164D-02 0.275D-01 0.662D-01 0.666D-01 0.128D+00 0.714D+00
 Gap=     0.088 Goal=   None    Shift=    0.000
 RMSDP=4.20D-08 MaxDP=1.96D-06 DE=-4.60D-09 OVMax= 5.85D-06

 Cycle  17  Pass 1  IDiag  1:
 RMSU=  3.23D-08    CP:  1.00D+00  9.62D-01  7.30D-01  4.01D-01  6.60D-01
                    CP:  1.16D+00
 E= -1501.73384506357     Delta-E=       -0.000000000067 Rises=F Damp=F
 DIIS: error= 1.47D-07 at cycle   7 NSaved=   7.
 NSaved= 7 IEnMin= 7 EnMin= -1501.73384506357     IErMin= 7 ErrMin= 1.47D-07
 ErrMax= 1.47D-07  0.00D+00 EMaxC= 1.00D-01 BMatC= 2.39D-11 BMatP= 5.60D-11
 IDIUse=1 WtCom= 1.00D+00 WtEn= 0.00D+00
 Coeff-Com:  0.119D-03-0.134D-01-0.358D-01-0.235D-01-0.436D-01 0.405D+00
 Coeff-Com:  0.711D+00
 Coeff:      0.119D-03-0.134D-01-0.358D-01-0.235D-01-0.436D-01 0.405D+00
 Coeff:      0.711D+00
 Gap=     0.088 Goal=   None    Shift=    0.000
 RMSDP=2.77D-08 MaxDP=1.99D-06 DE=-6.73D-11 OVMax= 3.34D-06

 Cycle  18  Pass 1  IDiag  1:
 RMSU=  1.41D-08    CP:  1.00D+00  9.62D-01  7.30D-01  4.09D-01  6.86D-01
                    CP:  1.32D+00  9.15D-01
 E= -1501.73384506363     Delta-E=       -0.000000000060 Rises=F Damp=F
 DIIS: error= 6.40D-08 at cycle   8 NSaved=   8.
 NSaved= 8 IEnMin= 8 EnMin= -1501.73384506363     IErMin= 8 ErrMin= 6.40D-08
 ErrMax= 6.40D-08  0.00D+00 EMaxC= 1.00D-01 BMatC= 4.47D-12 BMatP= 2.39D-11
 IDIUse=1 WtCom= 1.00D+00 WtEn= 0.00D+00
 Coeff-Com:  0.263D-03-0.109D-01-0.285D-01-0.210D-01-0.400D-01 0.159D+00
[...]
    33  C    0.000000   0.000000  -0.000000   0.000000  -0.000548  -0.000013
    34  H    0.000000  -0.000000  -0.000000  -0.000000  -0.000181   0.000034
    35  H    0.000000   0.000000  -0.000000   0.000000   0.000015  -0.000002
    36  C    0.000000   0.000000   0.000000   0.000000   0.000124  -0.000005
    37  O    0.000000   0.000000   0.000000  -0.000000  -0.000006   0.000000
    38  C   -0.000000   0.000000   0.000000  -0.000000  -0.000202  -0.000079
    39  O   -0.000000  -0.000000   0.000000  -0.000000  -0.000009  -0.000020
    40  N   -0.000000   0.000000   0.000000  -0.000000   0.000002  -0.000000
    41  H   -0.000000  -0.000000  -0.000000   0.000000   0.000000   0.000000
    42  C    0.000000   0.000000  -0.000000   0.000000  -0.000000  -0.000000
    43  H   -0.000000   0.000000   0.000000  -0.000000   0.000000  -0.000000
    44  H    0.000000   0.000000  -0.000000   0.000000  -0.000000   0.000000
    45  H   -0.000000  -0.000000   0.000000  -0.000000   0.000000  -0.000000
              25         26         27         28         29         30
     1  C    0.000000   0.000000  -0.000000   0.000001   0.000000  -0.000000
     2  H   -0.000000  -0.000000   0.000000   0.000000   0.000000   0.000000
     3  H   -0.000000   0.000000  -0.000000   0.000000   0.000000  -0.000000
     4  H    0.000000  -0.000000   0.000000  -0.000000  -0.000000   0.000000
     5  C   -0.000000  -0.000000  -0.000003   0.000116  -0.000001  -0.000000
     6  O    0.000000  -0.000000  -0.000000  -0.000045   0.000000   0.000000
     7  N   -0.000000   0.000000  -0.000029   0.000513   0.000004  -0.000000
     8  H    0.000000  -0.000000   0.000004  -0.000019  -0.000001  -0.000000
     9  C   -0.000001  -0.000004   0.001645  -0.027160  -0.000063   0.000002
    10  H    0.000002  -0.000011  -0.003233   0.028537   0.000277  -0.000009
    11  C    0.000000  -0.000002  -0.000051  -0.001682   0.000013  -0.000000
    12  H    0.000000   0.000000   0.000005  -0.000041  -0.000000   0.000000
    13  H   -0.000000   0.000000   0.000002  -0.000028   0.000000   0.000000
    14  S    0.000001   0.000114   0.001360   0.001873   0.000750   0.000046
    15  C    0.000000  -0.000000  -0.000050   0.000717  -0.000000  -0.000000
    16  O   -0.000000   0.000000   0.000000  -0.000000   0.000000   0.000000
    17  N   -0.000002  -0.000017  -0.000034  -0.000844  -0.000000   0.000000
    18  H    0.000030   0.000315   0.000233   0.004347   0.000015  -0.000000
    19  C   -0.000000  -0.000000   0.000000   0.000002   0.000000  -0.000000
    20  H   -0.000000   0.000000  -0.000000   0.000000  -0.000000  -0.000000
    21  H    0.000000  -0.000000  -0.000000  -0.000000  -0.000000  -0.000000
    22  H    0.000000  -0.000000   0.000000   0.000000   0.000000   0.000000
    23  C    0.364700   0.364275   0.362125  -0.078817  -0.111516  -0.001185
    24  H   -0.023657  -0.024481  -0.032478   0.003425   0.007928   0.003386
    25  H    0.497391  -0.021548  -0.018329  -0.000137   0.000529   0.000044
    26  H   -0.021548   0.507669  -0.019307   0.000936   0.002124  -0.000146
    27  C   -0.018329  -0.019307   4.394016   0.519264   0.301914  -0.021380
    28  O   -0.000137   0.000936   0.519264   8.105597  -0.098807   0.002227
    29  N    0.000529   0.002124   0.301914  -0.098807   6.975838   0.292066
    30  H    0.000044  -0.000146  -0.021380   0.002227   0.292066   0.413094
    31  C   -0.000303  -0.000162  -0.042716   0.012527   0.263836  -0.095813
    32  H    0.000088  -0.000043  -0.008603   0.007931  -0.058269   0.006313
    33  C   -0.000029   0.000109  -0.010475   0.002299  -0.091745   0.006292
    34  H    0.000007  -0.000023   0.001213  -0.001893   0.006337   0.000264
    35  H    0.000000  -0.000001   0.000567   0.000287   0.003523   0.000110
    36  C   -0.000003   0.000001   0.000802   0.004308  -0.000205  -0.000259
    37  O    0.000000  -0.000000  -0.000374  -0.002176   0.000947  -0.000009
    38  C    0.000002   0.000002   0.008141   0.000928  -0.030411  -0.008603
    39  O   -0.000000  -0.000000   0.000003  -0.000007  -0.010991   0.051599
    40  N   -0.000000  -0.000000  -0.000189  -0.000005   0.004607   0.003134
    41  H   -0.000000   0.000000  -0.000001   0.000004   0.000162  -0.000089
    42  C    0.000000   0.000000   0.000003   0.000000  -0.000092  -0.000122
    43  H    0.000000  -0.000000  -0.000000   0.000000  -0.000001  -0.000001
    44  H    0.000000  -0.000000   0.000000   0.000000  -0.000003  -0.000021
    45  H   -0.000000   0.000000  -0.000000   0.000000   0.000006   0.000003
              31         32         33         34         35         36
     1  C   -0.000000   0.000002  -0.000000   0.000000   0.000000   0.000001
     2  H    0.000000   0.000001  -0.000000   0.000000   0.000000   0.000002
     3  H   -0.000000   0.000000  -0.000000   0.000000  -0.000000   0.000000
     4  H    0.000000  -0.000001  -0.000000  -0.000000  -0.000000  -0.000000
     5  C    0.000001   0.000025  -0.000000   0.000000  -0.000000  -0.000066
     6  O    0.000000  -0.000001   0.000000   0.000000  -0.000000  -0.000004
     7  N   -0.000047   0.000094  -0.000017   0.000001  -0.000001   0.001136
     8  H   -0.000003  -0.000050   0.000240  -0.000005  -0.000001  -0.001485
     9  C    0.000036  -0.000086  -0.000047  -0.000023  -0.000001  -0.001996
    10  H    0.000140   0.000408  -0.000617   0.000033  -0.000001  -0.001571
    11  C   -0.000097   0.000020   0.002552   0.000076  -0.000052  -0.011391
    12  H   -0.000005  -0.000002   0.000064   0.000001   0.000007  -0.003384
    13  H    0.000001   0.000000  -0.000044  -0.000004   0.000001   0.002062
    14  S   -0.001321   0.000752  -0.089349   0.006435   0.002391   0.267747
    15  C    0.000000   0.000003   0.000001  -0.000000   0.000000   0.000258
    16  O    0.000000   0.000000  -0.000000   0.000000  -0.000000  -0.000002
    17  N    0.000000  -0.000000  -0.000000   0.000000   0.000000   0.000001
    18  H   -0.000004  -0.000001   0.000002  -0.000000  -0.000000  -0.000013
    19  C   -0.000000   0.000000   0.000000   0.000000   0.000000   0.000000
    20  H    0.000000   0.000000   0.000000  -0.000000   0.000000   0.000000
    21  H    0.000000  -0.000000  -0.000000  -0.000000  -0.000000   0.000000
    22  H   -0.000000   0.000000   0.000000  -0.000000   0.000000   0.000000
    23  C    0.012567   0.000157  -0.000548  -0.000181   0.000015   0.000124
    24  H    0.000370   0.000004  -0.000013   0.000034  -0.000002  -0.000005
    25  H   -0.000303   0.000088  -0.000029   0.000007   0.000000  -0.000003
    26  H   -0.000162  -0.000043   0.000109  -0.000023  -0.000001   0.000001
    27  C   -0.042716  -0.008603  -0.010475   0.001213   0.000567   0.000802
    28  O    0.012527   0.007931   0.002299  -0.001893   0.000287   0.004308
    29  N    0.263836  -0.058269  -0.091745   0.006337   0.003523  -0.000205
    30  H   -0.095813   0.006313   0.006292   0.000264   0.000110  -0.000259
    31  C    5.200887   0.376436   0.308780  -0.035416  -0.031364  -0.016470
    32  H    0.376436   0.576480  -0.079603   0.004587   0.004173  -0.002093
    33  C    0.308780  -0.079603   5.456429   0.336567   0.344316   0.307392
    34  H   -0.035416   0.004587   0.336567   0.557239  -0.023813  -0.018646
    35  H   -0.031364   0.004173   0.344316  -0.023813   0.552566  -0.028231
    36  C   -0.016470  -0.002093   0.307392  -0.018646  -0.028231   4.715631
    37  O   -0.005395   0.013662  -0.071607   0.003309  -0.001640   0.472107
    38  C    0.280419  -0.028811  -0.026558  -0.000627  -0.007772   0.001526
    39  O   -0.082885   0.000583   0.000460  -0.000080  -0.000250  -0.000017
    40  N   -0.104606  -0.000040  -0.005929   0.000437   0.009635  -0.000130
    41  H   -0.000614   0.002670   0.000158   0.000117   0.002417   0.000024
    42  C    0.005341  -0.000105   0.000021  -0.000010  -0.000174   0.000008
    43  H   -0.000023  -0.000003  -0.000013   0.000000  -0.000008  -0.000000
    44  H    0.000198  -0.000006  -0.000022   0.000001   0.000027  -0.000000
    45  H    0.000006  -0.000004   0.000078  -0.000007  -0.000150  -0.000001
              37         38         39         40         41         42
     1  C   -0.000060   0.000000   0.000000  -0.000000   0.000000   0.000000
     2  H   -0.000026  -0.000000  -0.000000  -0.000000   0.000000   0.000000
     3  H    0.000000   0.000000   0.000000  -0.000000   0.000000   0.000000
     4  H    0.000001  -0.000000  -0.000000   0.000000  -0.000000  -0.000000
     5  C    0.000138   0.000000   0.000000   0.000000  -0.000000  -0.000000
     6  O   -0.000001   0.000000  -0.000000   0.000000  -0.000000   0.000000
     7  N   -0.010247  -0.000000   0.000000  -0.000000   0.000000   0.000000
     8  H    0.021144   0.000000  -0.000000   0.000000  -0.000001  -0.000000
     9  C    0.003462   0.000000  -0.000000   0.000000  -0.000000  -0.000000
    10  H    0.001826   0.000002   0.000000  -0.000000  -0.000000   0.000000
    11  C    0.001163   0.000000  -0.000000   0.000000  -0.000000   0.000000
    12  H    0.003030   0.000000   0.000000  -0.000000  -0.000000   0.000000
    13  H    0.000163  -0.000000   0.000000  -0.000000  -0.000000  -0.000000
    14  S   -0.073164  -0.000151   0.000001  -0.000024   0.000123  -0.000000
    15  C    0.000170   0.000000  -0.000000   0.000000  -0.000000   0.000000
    16  O   -0.000000   0.000000   0.000000  -0.000000   0.000000  -0.000000
    17  N   -0.000000   0.000000  -0.000000  -0.000000   0.000000   0.000000
    18  H    0.000001  -0.000000   0.000000   0.000000  -0.000000  -0.000000
    19  C    0.000000  -0.000000  -0.000000  -0.000000  -0.000000   0.000000
    20  H    0.000000   0.000000  -0.000000   0.000000  -0.000000   0.000000
    21  H    0.000000   0.000000   0.000000   0.000000  -0.000000  -0.000000
    22  H   -0.000000  -0.000000  -0.000000  -0.000000   0.000000   0.000000
    23  C   -0.000006  -0.000202  -0.000009   0.000002   0.000000  -0.000000
    24  H    0.000000  -0.000079  -0.000020  -0.000000   0.000000  -0.000000
    25  H    0.000000   0.000002  -0.000000  -0.000000  -0.000000   0.000000
    26  H   -0.000000   0.000002  -0.000000  -0.000000   0.000000   0.000000
    27  C   -0.000374   0.008141   0.000003  -0.000189  -0.000001   0.000003
    28  O   -0.002176   0.000928  -0.000007  -0.000005   0.000004   0.000000
    29  N    0.000947  -0.030411  -0.010991   0.004607   0.000162  -0.000092
    30  H   -0.000009  -0.008603   0.051599   0.003134  -0.000089  -0.000122
    31  C   -0.005395   0.280419  -0.082885  -0.104606  -0.000614   0.005341
    32  H    0.013662  -0.028811   0.000583  -0.000040   0.002670  -0.000105
    33  C   -0.071607  -0.026558   0.000460  -0.005929   0.000158   0.000021
    34  H    0.003309  -0.000627  -0.000080   0.000437   0.000117  -0.000010
    35  H   -0.001640  -0.007772  -0.000250   0.009635   0.002417  -0.000174
    36  C    0.472107   0.001526  -0.000017  -0.000130   0.000024   0.000008
    37  O    8.102928  -0.000606  -0.000001  -0.000332   0.003811   0.000001
    38  C   -0.000606   4.446486   0.575501   0.279524  -0.022980  -0.025149
    39  O   -0.000001   0.575501   8.088263  -0.115602   0.003855   0.005106
    40  N   -0.000332   0.279524  -0.115602   7.062498   0.301458   0.268874
    41  H    0.003811  -0.022980   0.003855   0.301458   0.393435  -0.030041
    42  C    0.000001  -0.025149   0.005106   0.268874  -0.030041   4.926370
    43  H   -0.000000   0.005624   0.000875  -0.031115  -0.004106   0.370730
    44  H    0.000000  -0.004802   0.008303  -0.040784   0.002781   0.385882
    45  H    0.000000  -0.004230   0.002183  -0.047215   0.002750   0.390163
              43         44         45
     1  C   -0.000000   0.000000  -0.000000
     2  H   -0.000000  -0.000000   0.000000
     3  H   -0.000000  -0.000000   0.000000
     4  H    0.000000   0.000000  -0.000000
     5  C   -0.000000  -0.000000   0.000000
     6  O    0.000000   0.000000   0.000000
     7  N   -0.000000  -0.000000   0.000000
     8  H    0.000000   0.000000  -0.000000
     9  C    0.000000  -0.000000   0.000000
    10  H   -0.000000   0.000000  -0.000000
    11  C    0.000000   0.000000  -0.000000
    12  H    0.000000   0.000000  -0.000000
    13  H   -0.000000  -0.000000   0.000000
    14  S   -0.000000  -0.000000   0.000000
    15  C    0.000000   0.000000  -0.000000
    16  O    0.000000  -0.000000  -0.000000
    17  N    0.000000  -0.000000   0.000000
    18  H   -0.000000  -0.000000  -0.000000
    19  C   -0.000000   0.000000  -0.000000
    20  H    0.000000   0.000000  -0.000000
    21  H    0.000000  -0.000000   0.000000
    22  H   -0.000000   0.000000  -0.000000
    23  C    0.000000  -0.000000   0.000000
    24  H   -0.000000   0.000000  -0.000000
    25  H    0.000000   0.000000  -0.000000
    26  H   -0.000000  -0.000000   0.000000
    27  C   -0.000000   0.000000  -0.000000
    28  O    0.000000   0.000000   0.000000
    29  N   -0.000001  -0.000003   0.000006
    30  H   -0.000001  -0.000021   0.000003
    31  C   -0.000023   0.000198   0.000006
    32  H   -0.000003  -0.000006  -0.000004
    33  C   -0.000013  -0.000022   0.000078
    34  H    0.000000   0.000001  -0.000007
    35  H   -0.000008   0.000027  -0.000150
    36  C   -0.000000  -0.000000  -0.000001
    37  O   -0.000000   0.000000   0.000000
    38  C    0.005624  -0.004802  -0.004230
    39  O    0.000875   0.008303   0.002183
    40  N   -0.031115  -0.040784  -0.047215
    41  H   -0.004106   0.002781   0.002750
    42  C    0.370730   0.385882   0.390163
    43  H    0.554649  -0.024909  -0.032372
    44  H   -0.024909   0.515398  -0.035229
    45  H   -0.032372  -0.035229   0.547652
 Mulliken charges:
               1
     1  C   -0.526920
     2  H    0.132408
     3  H    0.187049
     4  H    0.173936
     5  C    0.610893
     6  O   -0.525150
     7  N   -0.605063
     8  H    0.335659
     9  C   -0.038800
    10  H    0.248220
    11  C   -0.468018
    12  H    0.198451
    13  H    0.198513
    14  S    0.105140
    15  C    0.621953
    16  O   -0.522654
    17  N   -0.598461
    18  H    0.316662
    19  C   -0.303344
    20  H    0.214763
    21  H    0.143707
    22  H    0.150524
    23  C   -0.533367
    24  H    0.153173
    25  H    0.201215
    26  H    0.190201
    27  C    0.565953
    28  O   -0.484176
    29  N   -0.458770
    30  H    0.349056
    31  C   -0.044303
    32  H    0.183330
    33  C   -0.389145
    34  H    0.164071
    35  H    0.173425
    36  C    0.312844
    37  O   -0.462220
    38  C    0.562824
    39  O   -0.526871
    40  N   -0.584200
    41  H    0.344070
    42  C   -0.296804
    43  H    0.160672
    44  H    0.193185
    45  H    0.176367
 Sum of Mulliken charges =  -0.00000
 Mulliken charges with hydrogens summed into heavy atoms:
               1
     1  C   -0.033527
     5  C    0.610893
     6  O   -0.525150
     7  N   -0.269404
     9  C    0.209420
    11  C   -0.071054
    14  S    0.105140
    15  C    0.621953
    16  O   -0.522654
    17  N   -0.281799
    19  C    0.205649
    23  C    0.011223
    27  C    0.565953
    28  O   -0.484176
    29  N   -0.109714
    31  C    0.139028
    33  C   -0.051648
    36  C    0.312844
    37  O   -0.462220
    38  C    0.562824
    39  O   -0.526871
    40  N   -0.240130
    42  C    0.233420
 Electronic spatial extent (au):  <R**2>=           9257.2602
 Charge=             -0.0000 electrons
 Dipole moment (field-independent basis, Debye):
    X=             -7.0422    Y=              1.7978    Z=              1.9071  Tot=              7.5141
 Quadrupole moment (field-independent basis, Debye-Ang):
   XX=           -153.3352   YY=           -121.6938   ZZ=           -146.0547
   XY=             17.7030   XZ=              3.1460   YZ=             -4.7264
 Traceless Quadrupole moment (field-independent basis, Debye-Ang):
   XX=            -12.9739   YY=             18.6674   ZZ=             -5.6934
   XY=             17.7030   XZ=              3.1460   YZ=             -4.7264
 Octapole moment (field-independent basis, Debye-Ang**2):
  XXX=           -115.5796  YYY=              5.9349  ZZZ=            -11.1370  XYY=             -2.2927
  XXY=            -21.2266  XXZ=             50.1490  XZZ=             -8.9539  YZZ=              4.2638
  YYZ=            -23.9627  XYZ=             -4.3591
 Hexadecapole moment (field-independent basis, Debye-Ang**3):
 XXXX=          -8259.6965 YYYY=          -2207.2507 ZZZZ=          -1579.7263 XXXY=            606.5278
 XXXZ=           -143.3338 YYYX=            -24.4893 YYYZ=            -26.2616 ZZZX=             60.9654
 ZZZY=            -35.7300 XXYY=          -1534.0342 XXZZ=          -1632.2066 YYZZ=           -618.3007
 XXYZ=              0.6235 YYXZ=            -12.9745 ZZXY=              6.7456
 N-N= 2.282214725411D+03 E-N=-8.087643362981D+03  KE= 1.491906939542D+03
 No NMR shielding tensors so no spin-rotation constants.
 Leave Link  601 at Tue Jun  9 13:53:03 2026, MaxMem=    67108864 cpu:               2.4 elap:               0.2
 (Enter /software/local/apps/gaussian-16.0/g16/l9999.exe)
 Unable to Open any file for archive entry.
 1\1\GINC-BP1-COMPUTE077\FOpt\RB3LYP\6-31G(d)\C13H22N4O5S1\XV24323\09-J
 un-2026\0\\#P b3lyp/6-31g* opt(modredundant)\\CYA_ASA_bond_combined co
 valent bond complex backbone-frozen optimisation\\0,1\C,108.9780154313
 ,90.9120909069,76.2290316468\H,109.7970122024,91.2840171201,75.6130100
 207\H,109.0439746995,89.8270302127,76.3050061705\H,109.0440263871,91.3
 500264251,77.2250155305\C,107.6499554049,91.2957591998,75.5939080111\O
 ,106.6080169702,91.1650389395,76.2320115854\N,107.6249418396,91.772682
 972,74.3469016108\H,108.4626964491,92.1461167322,73.9230625835\C,106.3
 600983932,92.1528081227,73.7072043531\H,105.9872734411,93.0654554818,7
 4.1510373054\C,106.6148156671,92.3507449178,72.1857392867\H,107.590740
 734,91.9499124488,71.9022978483\H,105.8663603581,91.8246483986,71.5864
 324771\S,106.4714941144,94.0931501549,71.6032166774\C,105.3270101406,9
 1.0527946278,73.9449779441\O,105.6309845546,89.8909101337,74.080969261
 \N,104.0360049028,91.3889696769,74.0051015925\H,103.7770013767,92.3589
 945074,73.8918696428\C,103.0229967234,90.3780066327,74.2290125102\H,10
 3.5030042173,89.4230042742,74.440988151\H,102.4019904223,90.2830067662
 ,73.3390024635\H,102.4020105159,90.667997812,75.077003793\C,103.731995
 6852,96.2299695398,75.211104037\H,103.5649946149,97.3070195914,75.2580
 272088\H,103.5379794273,95.7899775073,76.1889770342\H,103.0609865576,9
 5.7900501071,74.473961419\C,105.1753721556,95.9576011181,74.8101744627
 \O,105.5118949528,94.8240140228,74.4779293335\N,106.0645956065,96.9544
 037625,74.8214617983\H,105.7730684967,97.899536742,75.0953020226\C,107
 .1623583768,96.7663188517,74.5223873636\H,107.6986131999,95.9437036913
 ,75.0409999197\C,107.3790869333,96.3914998513,72.9295865081\H,106.4999
 664917,96.7507406787,72.3860234709\H,108.2545582256,96.9132941456,72.5
 327534931\C,107.6105792924,94.9132163791,72.7318383365\O,108.521901921
 5,94.338719807,73.3003993648\C,108.052680001,98.0834290543,74.73497447
 82\O,107.5470759047,99.1160460924,75.1670989161\N,109.3550443738,98.05
 60399501,74.4410322389\H,109.7589707586,97.2010161641,74.08585735\C,11
 0.1760187482,99.234991826,74.6269986934\H,111.2279985683,98.9559971979
 ,74.583012903\H,109.9579858279,99.679993509,75.5979934976\H,109.958004
 259,99.9569933757,73.8399949787\\Version=ES64L-G16RevC.01\State=1-A\HF
 =-1501.8937682\RMSD=4.236e-09\RMSF=5.283e-02\Dipole=0.3756596,2.821358
 ,-0.7989405\Quadrupole=19.8170239,-15.0913884,-4.7256355,2.130375,0.66
 64271,4.057003\PG=C01 [X(C13H22N4O5S1)]\\@
 The archive entry for this job was punched.


 A MAN BEGINS CUTTING HIS WISDOM TEETH THE 1ST
 TIME HE BITES OFF MORE THAN HE CAN CHEW.
 Job cpu time:       0 days  3 hours 53 minutes 30.7 seconds.
 Elapsed time:       0 days  0 hours 14 minutes 48.7 seconds.
 File lengths (MBytes):  RWF=    216 Int=      0 D2E=      0 Chk=     24 Scr=     16
 Normal termination of Gaussian 16 at Tue Jun  9 13:53:04 2026.
