 Entering Gaussian System, Link 0=g16
 Initial command:
 /software/local/apps/gaussian-16.0/g16/l1.exe "KM3/middle/Gau-3360064.inp" -scrdir="KM3/middle/"
 Entering Link 1 = /software/local/apps/gaussian-16.0/g16/l1.exe PID=   3360065.
  
 Copyright (c) 1988-2019, Gaussian, Inc.  All Rights Reserved.
  
 This is part of the Gaussian(R) 16 program.  It is based on
 the Gaussian(R) 09 system (copyright 2009, Gaussian, Inc.),
 the Gaussian(R) 03 system (copyright 2003, Gaussian, Inc.),
 the Gaussian(R) 98 system (copyright 1998, Gaussian, Inc.),
 the Gaussian(R) 94 system (copyright 1995, Gaussian, Inc.),
 the Gaussian 92(TM) system (copyright 1992, Gaussian, Inc.),
 the Gaussian 90(TM) system (copyright 1990, Gaussian, Inc.),
 the Gaussian 88(TM) system (copyright 1988, Gaussian, Inc.),
 the Gaussian 86(TM) system (copyright 1986, Carnegie Mellon
 University), and the Gaussian 82(TM) system (copyright 1983,
 Carnegie Mellon University). Gaussian is a federally registered
 trademark of Gaussian, Inc.
  
 This software contains proprietary and confidential information,
 including trade secrets, belonging to Gaussian, Inc.
  
 This software is provided under written license and may be
 used, copied, transmitted, or stored only in accord with that
 written license.
  
 The following legend is applicable only to US Government
 contracts under FAR:
  
                    RESTRICTED RIGHTS LEGEND
  
 Use, reproduction and disclosure by the US Government is
 subject to restrictions as set forth in subparagraphs (a)
 and (c) of the Commercial Computer Software - Restricted
 Rights clause in FAR 52.227-19.
  
 Gaussian, Inc.
 340 Quinnipiac St., Bldg. 40, Wallingford CT 06492
  
  
 ---------------------------------------------------------------
 Warning -- This program may not be used in any manner that
 competes with the business of Gaussian, Inc. or will provide
 assistance to any competitor of Gaussian, Inc.  The licensee
 of this program is prohibited from giving any competitor of
 Gaussian, Inc. access to this program.  By using this program,
 the user acknowledges that Gaussian, Inc. is engaged in the
 business of creating and licensing software in the field of
 computational chemistry and represents and warrants to the
 licensee that it is not a competitor of Gaussian, Inc. and that
 it will not use this program in any manner prohibited above.
 ---------------------------------------------------------------
  

 Cite this work as:
 Gaussian 16, Revision C.01,
 M. J. Frisch, G. W. Trucks, H. B. Schlegel, G. E. Scuseria, 
 M. A. Robb, J. R. Cheeseman, G. Scalmani, V. Barone, 
 G. A. Petersson, H. Nakatsuji, X. Li, M. Caricato, A. V. Marenich, 
 J. Bloino, B. G. Janesko, R. Gomperts, B. Mennucci, H. P. Hratchian, 
 J. V. Ortiz, A. F. Izmaylov, J. L. Sonnenberg, D. Williams-Young, 
 F. Ding, F. Lipparini, F. Egidi, J. Goings, B. Peng, A. Petrone, 
 T. Henderson, D. Ranasinghe, V. G. Zakrzewski, J. Gao, N. Rega, 
 G. Zheng, W. Liang, M. Hada, M. Ehara, K. Toyota, R. Fukuda, 
 J. Hasegawa, M. Ishida, T. Nakajima, Y. Honda, O. Kitao, H. Nakai, 
 T. Vreven, K. Throssell, J. A. Montgomery, Jr., J. E. Peralta, 
 F. Ogliaro, M. J. Bearpark, J. J. Heyd, E. N. Brothers, K. N. Kudin, 
 V. N. Staroverov, T. A. Keith, R. Kobayashi, J. Normand, 
 K. Raghavachari, A. P. Rendell, J. C. Burant, S. S. Iyengar, 
 J. Tomasi, M. Cossi, J. M. Millam, M. Klene, C. Adamo, R. Cammi, 
 J. W. Ochterski, R. L. Martin, K. Morokuma, O. Farkas, 
 J. B. Foresman, and D. J. Fox, Gaussian, Inc., Wallingford CT, 2019.
 
 ******************************************
 Gaussian 16:  ES64L-G16RevC.01  3-Jul-2019
                 1-Jun-2026 
 ******************************************
 %nprocshared=16
 Will use up to   16 processors via shared memory.
 %mem=512MB
 -------------------------------------------
 #p hf/6-31g(d) SCF=Tight Pop=MK IOp(6/33=2)
 -------------------------------------------
 1/38=1,172=1/1;
 2/12=2,17=6,18=5,40=1/2;
 3/5=1,6=6,7=1,11=9,25=1,30=1/1,2,3;
 4//1;
 5/5=2,32=2,38=5/2;
 6/7=2,8=2,9=2,10=2,15=8,20=1,28=1,33=2/1,2;
 99/5=1,9=1/99;
 Leave Link    1 at Mon Jun  1 09:19:41 2026, MaxMem=    67108864 cpu:              22.8 elap:               1.5
 (Enter /software/local/apps/gaussian-16.0/g16/l101.exe)
 ---
 KM3
 ---
 Symbolic Z-matrix:
 Charge =  1 Multiplicity = 1
 C                     4.40052  -2.83812   0.5414 
 H                     4.89222  -2.29954   1.35699 
 H                     5.15161  -3.12261  -0.2013 
 H                     3.96855  -3.76401   0.93439 
 C                     3.31121  -2.03952  -0.15077 
 O                     2.70616  -2.45536  -1.12872 
 N                     3.05572  -0.78813   0.37822 
 H                     3.41365  -0.57411   1.30066 
 C                     1.93701   0.00397  -0.12295 
 C                     2.21756   1.51559   0.02045 
 O                     1.31517   2.31112   0.27629 
 C                     0.58809  -0.39409   0.5104 
 C                    -0.61554   0.05692  -0.32859 
 C                    -1.95671  -0.31083   0.33371 
 C                    -3.10189   0.18497  -0.54423 
 N                    -4.52833  -0.06075  -0.02288 
 C                    -5.49676   0.49436  -1.0373 
 C                    -4.79218  -1.5346    0.14493 
 C                    -4.74773   0.64253   1.29179 
 H                     1.88949  -0.22753  -1.19443 
 H                     0.57929  -1.48613   0.60272 
 H                     0.51905   0.03251   1.51872 
 H                    -0.55585   1.14038  -0.46586 
 H                    -0.5585   -0.41191  -1.32094 
 H                    -2.00943  -1.39741   0.47185 
 H                    -1.9971    0.15337   1.326 
 H                    -3.03127   1.26665  -0.69015 
 H                    -3.0697   -0.29283  -1.52778 
 H                    -5.78973   0.51195   1.58821 
 H                    -4.0921    0.21115   2.04656 
 H                    -4.52547   1.70333   1.16563 
 H                    -6.51575   0.33117  -0.68279 
 H                    -5.30987   1.56246  -1.15701 
 H                    -5.346    -0.01872  -1.98815 
 H                    -5.8338   -1.67222   0.43955 
 H                    -4.60387  -2.03705  -0.80522 
 H                    -4.13421  -1.9339    0.91525 
 N                     3.50854   1.8784   -0.18225 
 H                     4.16967   1.14705  -0.40714 
 C                     3.95472   3.26334  -0.1763 
 H                     3.11524   3.88138   0.14328 
 H                     4.27276   3.57959  -1.17625 
 H                     4.78926   3.39726   0.51974 
 
 ITRead=  0  0  0  0  0  0  0  0  0  0  0  0  0  0  0  0  0  0  0  0
 ITRead=  0  0  0  0  0  0  0  0  0  0  0  0  0  0  0  0  0  0  0  0
 ITRead=  0  0  0
 MicOpt= -1 -1 -1 -1 -1 -1 -1 -1 -1 -1 -1 -1 -1 -1 -1 -1 -1 -1 -1 -1
 MicOpt= -1 -1 -1 -1 -1 -1 -1 -1 -1 -1 -1 -1 -1 -1 -1 -1 -1 -1 -1 -1
 MicOpt= -1 -1 -1
 NAtoms=     43 NQM=       43 NQMF=       0 NMMI=      0 NMMIF=      0
                NMic=       0 NMicF=      0.
                    Isotopes and Nuclear Properties:
 (Nuclear quadrupole moments (NQMom) in fm**2, nuclear magnetic moments (NMagM)
  in nuclear magnetons)

  Atom         1           2           3           4           5           6           7           8           9          10
 IAtWgt=          12           1           1           1          12          16          14           1          12          12
 AtmWgt=  12.0000000   1.0078250   1.0078250   1.0078250  12.0000000  15.9949146  14.0030740   1.0078250  12.0000000  12.0000000
 NucSpn=           0           1           1           1           0           0           2           1           0           0
 AtZEff=  -0.0000000  -0.0000000  -0.0000000  -0.0000000  -0.0000000  -0.0000000  -0.0000000  -0.0000000  -0.0000000  -0.0000000
 NQMom=    0.0000000   0.0000000   0.0000000   0.0000000   0.0000000   0.0000000   2.0440000   0.0000000   0.0000000   0.0000000
 NMagM=    0.0000000   2.7928460   2.7928460   2.7928460   0.0000000   0.0000000   0.4037610   2.7928460   0.0000000   0.0000000
 AtZNuc=   6.0000000   1.0000000   1.0000000   1.0000000   6.0000000   8.0000000   7.0000000   1.0000000   6.0000000   6.0000000

  Atom        11          12          13          14          15          16          17          18          19          20
 IAtWgt=          16          12          12          12          12          14          12          12          12           1
 AtmWgt=  15.9949146  12.0000000  12.0000000  12.0000000  12.0000000  14.0030740  12.0000000  12.0000000  12.0000000   1.0078250
 NucSpn=           0           0           0           0           0           2           0           0           0           1
 AtZEff=  -0.0000000  -0.0000000  -0.0000000  -0.0000000  -0.0000000  -0.0000000  -0.0000000  -0.0000000  -0.0000000  -0.0000000
 NQMom=    0.0000000   0.0000000   0.0000000   0.0000000   0.0000000   2.0440000   0.0000000   0.0000000   0.0000000   0.0000000
 NMagM=    0.0000000   0.0000000   0.0000000   0.0000000   0.0000000   0.4037610   0.0000000   0.0000000   0.0000000   2.7928460
 AtZNuc=   8.0000000   6.0000000   6.0000000   6.0000000   6.0000000   7.0000000   6.0000000   6.0000000   6.0000000   1.0000000

  Atom        21          22          23          24          25          26          27          28          29          30
 IAtWgt=           1           1           1           1           1           1           1           1           1           1
 AtmWgt=   1.0078250   1.0078250   1.0078250   1.0078250   1.0078250   1.0078250   1.0078250   1.0078250   1.0078250   1.0078250
 NucSpn=           1           1           1           1           1           1           1           1           1           1
 AtZEff=  -0.0000000  -0.0000000  -0.0000000  -0.0000000  -0.0000000  -0.0000000  -0.0000000  -0.0000000  -0.0000000  -0.0000000
 NQMom=    0.0000000   0.0000000   0.0000000   0.0000000   0.0000000   0.0000000   0.0000000   0.0000000   0.0000000   0.0000000
 NMagM=    2.7928460   2.7928460   2.7928460   2.7928460   2.7928460   2.7928460   2.7928460   2.7928460   2.7928460   2.7928460
 AtZNuc=   1.0000000   1.0000000   1.0000000   1.0000000   1.0000000   1.0000000   1.0000000   1.0000000   1.0000000   1.0000000

  Atom        31          32          33          34          35          36          37          38          39          40
 IAtWgt=           1           1           1           1           1           1           1          14           1          12
 AtmWgt=   1.0078250   1.0078250   1.0078250   1.0078250   1.0078250   1.0078250   1.0078250  14.0030740   1.0078250  12.0000000
 NucSpn=           1           1           1           1           1           1           1           2           1           0
 AtZEff=  -0.0000000  -0.0000000  -0.0000000  -0.0000000  -0.0000000  -0.0000000  -0.0000000  -0.0000000  -0.0000000  -0.0000000
 NQMom=    0.0000000   0.0000000   0.0000000   0.0000000   0.0000000   0.0000000   0.0000000   2.0440000   0.0000000   0.0000000
 NMagM=    2.7928460   2.7928460   2.7928460   2.7928460   2.7928460   2.7928460   2.7928460   0.4037610   2.7928460   0.0000000
 AtZNuc=   1.0000000   1.0000000   1.0000000   1.0000000   1.0000000   1.0000000   1.0000000   7.0000000   1.0000000   6.0000000

  Atom        41          42          43
 IAtWgt=           1           1           1
 AtmWgt=   1.0078250   1.0078250   1.0078250
 NucSpn=           1           1           1
 AtZEff=  -0.0000000  -0.0000000  -0.0000000
 NQMom=    0.0000000   0.0000000   0.0000000
 NMagM=    2.7928460   2.7928460   2.7928460
 AtZNuc=   1.0000000   1.0000000   1.0000000
 Leave Link  101 at Mon Jun  1 09:19:41 2026, MaxMem=    67108864 cpu:               1.9 elap:               0.1
 (Enter /software/local/apps/gaussian-16.0/g16/l202.exe)
                          Input orientation:                          
 ---------------------------------------------------------------------
 Center     Atomic      Atomic             Coordinates (Angstroms)
 Number     Number       Type             X           Y           Z
 ---------------------------------------------------------------------
      1          6           0        4.400520   -2.838120    0.541398
      2          1           0        4.892220   -2.299541    1.356990
      3          1           0        5.151609   -3.122608   -0.201299
      4          1           0        3.968545   -3.764007    0.934390
      5          6           0        3.311207   -2.039524   -0.150774
      6          8           0        2.706163   -2.455360   -1.128718
      7          7           0        3.055716   -0.788134    0.378217
      8          1           0        3.413645   -0.574111    1.300661
      9          6           0        1.937009    0.003971   -0.122948
     10          6           0        2.217558    1.515586    0.020446
     11          8           0        1.315171    2.311118    0.276293
     12          6           0        0.588085   -0.394093    0.510404
     13          6           0       -0.615542    0.056919   -0.328587
     14          6           0       -1.956709   -0.310828    0.333708
     15          6           0       -3.101886    0.184973   -0.544231
     16          7           0       -4.528330   -0.060748   -0.022880
     17          6           0       -5.496760    0.494357   -1.037300
     18          6           0       -4.792183   -1.534600    0.144930
     19          6           0       -4.747729    0.642527    1.291789
     20          1           0        1.889490   -0.227532   -1.194428
     21          1           0        0.579286   -1.486131    0.602717
     22          1           0        0.519045    0.032507    1.518722
     23          1           0       -0.555853    1.140376   -0.465861
     24          1           0       -0.558500   -0.411908   -1.320939
     25          1           0       -2.009434   -1.397412    0.471846
     26          1           0       -1.997097    0.153369    1.325999
     27          1           0       -3.031275    1.266649   -0.690148
     28          1           0       -3.069704   -0.292826   -1.527775
     29          1           0       -5.789725    0.511950    1.588210
     30          1           0       -4.092101    0.211145    2.046560
     31          1           0       -4.525468    1.703334    1.165626
     32          1           0       -6.515754    0.331165   -0.682791
     33          1           0       -5.309866    1.562460   -1.157012
     34          1           0       -5.345999   -0.018723   -1.988149
     35          1           0       -5.833801   -1.672217    0.439549
     36          1           0       -4.603867   -2.037046   -0.805219
     37          1           0       -4.134207   -1.933902    0.915252
     38          7           0        3.508535    1.878398   -0.182245
     39          1           0        4.169669    1.147050   -0.407141
     40          6           0        3.954724    3.263342   -0.176299
     41          1           0        3.115241    3.881376    0.143279
     42          1           0        4.272764    3.579587   -1.176246
     43          1           0        4.789261    3.397265    0.519744
 ---------------------------------------------------------------------
                    Distance matrix (angstroms):
                    1          2          3          4          5
     1  C    0.000000
     2  H    1.094087   0.000000
     3  H    1.093923   1.781288   0.000000
     4  H    1.094674   1.782253   1.760915   0.000000
     5  C    1.517716   2.200128   2.136049   2.140915   0.000000
     6  O    2.409697   3.313890   2.699172   2.750015   1.222854
     7  N    2.457146   2.571983   3.190357   3.162026   1.382420
     8  H    2.583823   2.272986   3.430924   3.258451   2.065089
     9  C    3.819388   4.028605   4.485007   4.409395   2.462736
    10  C    4.898109   4.847201   5.492783   5.636963   3.723465
    11  O    6.008686   5.934759   6.668713   6.661879   4.805687
    12  C    4.528674   4.782574   5.364426   4.792034   3.249614
    13  C    5.856535   6.223304   6.586777   6.099872   4.454890
    14  C    6.844319   7.204853   7.662932   6.884323   5.565434
    15  C    8.161114   8.584473   8.898195   8.232360   6.799335
    16  N    9.367848   9.780746  10.154213   9.318121   8.086424
    17  C   10.561905  11.021316  11.276928  10.564716   9.207973
    18  C    9.293123   9.789887  10.075745   9.074352   8.124489
    19  C    9.816743  10.079119  10.695908   9.773367   8.615151
    20  H    4.016657   4.451892   4.473163   4.621795   2.528598
    21  H    4.053821   4.453309   4.922462   4.097048   2.887453
    22  H    4.925597   4.958756   5.862924   5.162752   3.857032
    23  H    6.434954   6.696067   7.128685   6.817907   5.016492
    24  H    5.826378   6.359623   6.419255   6.067719   4.358102
    25  H    6.570235   7.016420   7.396618   6.446003   5.395293
    26  H    7.105921   7.313031   8.010534   7.147592   5.930239
    27  H    8.578893   8.926940   9.298610   8.771779   7.172781
    28  H    8.158691   8.702931   8.795294   8.224859   6.757449
    29  H   10.777749  11.048162  11.667268  10.674040   9.610466
    30  H    9.148122   9.353987  10.080325   9.056090   8.043802
    31  H   10.034327  10.234866  10.899726  10.104135   8.783813
    32  H   11.432762  11.883736  12.177345  11.371290  10.122864
    33  H   10.795429  11.194544  11.502422  10.901107   9.397324
    34  H   10.456684  11.009687  11.091741  10.456056   9.077819
    35  H   10.301021  10.783448  11.099259  10.035260   9.171399
    36  H    9.139698   9.742675   9.834250   8.915990   7.942084
    37  H    8.590631   9.044623   9.427942   8.306879   7.522085
    38  N    4.854363   4.662510   5.264040   5.770201   3.923014
    39  H    4.102999   3.938683   4.385950   5.094962   3.310126
    40  C    6.159680   5.845985   6.497193   7.114595   5.341831
    41  H    6.852888   6.544806   7.302145   7.733425   5.931435
    42  H    6.644816   6.431575   6.829517   7.646941   5.792287
    43  H    6.247529   5.758922   6.569623   7.220064   5.673880
                    6          7          8          9         10
     6  O    0.000000
     7  N    2.274353   0.000000
     8  H    3.153016   1.012335   0.000000
     9  C    2.766131   1.459487   2.131032   0.000000
    10  C    4.162658   2.477425   2.726978   1.544102   0.000000
    11  O    5.160255   3.556016   3.711801   2.422603   1.229891
    12  C    3.379615   2.502388   2.939507   1.542461   2.557756
    13  C    4.240929   3.832991   4.391696   2.561368   3.205618
    14  C    5.336673   5.035296   5.463059   3.933023   4.567103
    15  C    6.406748   6.301897   6.814101   5.059714   5.512338
    16  N    7.700320   7.629399   8.067854   6.466437   6.927749
    17  C    8.717633   8.763180   9.273780   7.505827   7.853180
    18  C    7.661277   7.886771   8.342294   6.908038   7.645626
    19  C    8.427115   7.985935   8.251564   6.862577   7.133987
    20  H    2.373708   2.036558   2.944255   1.097233   2.149886
    21  H    2.908759   2.582693   3.058185   2.142523   3.468902
    22  H    4.240508   2.899811   2.965509   2.169451   2.707268
    23  H    4.899943   4.180317   4.670865   2.761044   2.840614
    24  H    3.856251   4.011388   4.762041   2.799233   3.636075
    25  H    5.090964   5.102522   5.547481   4.229901   5.153327
    26  H    5.912001   5.226436   5.459487   4.195111   4.617729
    27  H    6.853020   6.512680   6.992046   5.157511   5.302562
    28  H    6.180327   6.434198   7.079053   5.208532   5.798490
    29  H    9.400358   9.021980   9.271690   7.930228   8.220812
    30  H    7.962979   7.407646   7.583483   6.410917   6.754147
    31  H    8.651892   8.018839   8.260418   6.805282   6.842155
    32  H    9.644031   9.694927  10.165952   8.477599   8.841274
    33  H    8.966627   8.824125   9.311538   7.484342   7.619102
    34  H    8.456544   8.762448   9.373158   7.518091   7.974707
    35  H    8.718014   8.933581   9.352145   7.969410   8.669609
    36  H    7.329132   7.850447   8.417565   6.885804   7.735293
    37  H    7.158240   7.300424   7.679039   6.457002   7.283170
    38  N    4.507890   2.762165   2.867545   2.446771   1.356222
    39  H    3.954729   2.366984   2.539794   2.524315   2.032089
    40  C    5.930393   4.186904   4.147315   3.833734   2.472065
    41  H    6.476075   4.675795   4.613019   4.061204   2.533355
    42  H    6.235149   4.793177   4.911859   4.398888   3.148975
    43  H    6.427281   4.532414   4.274807   4.479156   3.225472
                   11         12         13         14         15
    11  O    0.000000
    12  C    2.810984   0.000000
    13  C    3.029017   1.534938   0.000000
    14  C    4.193220   2.552280   1.540325   0.000000
    15  C    4.970326   3.881167   2.498961   1.525787   0.000000
    16  N    6.313617   5.154921   3.926476   2.608243   1.538482
    17  C    7.171370   6.341141   4.951759   3.880715   2.464601
    18  C    7.218488   5.511952   4.494606   3.094054   2.507784
    19  C    6.369787   5.491453   4.476999   3.101064   2.507813
    20  H    2.989583   2.151244   2.665667   4.139491   5.050421
    21  H    3.881646   1.095968   2.162393   2.808020   4.202274
    22  H    2.714685   1.097023   2.168048   2.766134   4.170151
    23  H    2.328553   2.148554   1.093749   2.169724   2.720518
    24  H    3.671058   2.160739   1.099006   2.168654   2.725501
    25  H    4.984419   2.784823   2.167650   1.096598   2.174812
    26  H    4.090096   2.765515   2.157696   1.096244   2.172399
    27  H    4.573458   4.159225   2.725791   2.165966   1.093755
    28  H    5.409465   4.188538   2.753776   2.168917   1.093932
    29  H    7.445648   6.531389   5.536545   4.116157   3.446549
    30  H    6.064843   4.962885   4.213261   2.786793   2.773699
    31  H    5.939140   5.565693   4.497875   3.368599   2.693625
    32  H    8.134091   7.239768   5.917193   4.714904   3.419805
    33  H    6.819528   6.433833   4.998962   4.120087   2.673602
    34  H    7.411278   6.449575   5.013690   4.118693   2.676272
    35  H    8.185439   6.548224   5.550691   4.110526   3.446787
    36  H    7.423692   5.602368   4.529747   3.359230   2.694704
    37  H    6.937160   4.983468   4.229835   2.777420   2.772257
    38  N    2.282181   3.764705   4.510788   5.909975   6.833476
    39  H    3.157577   4.005590   4.908442   6.340881   7.336205
    40  C    2.842325   5.018232   5.584950   6.926748   7.707624
    41  H    2.392416   4.980054   5.363569   6.582972   7.265586
    42  H    3.530756   5.675542   6.084673   7.498108   8.142991
    43  H    3.648052   5.659007   6.410107   7.700174   8.586097
                   16         17         18         19         20
    16  N    0.000000
    17  C    1.508326   0.000000
    18  C    1.506658   2.451686   0.000000
    19  C    1.507012   2.451052   2.461127   0.000000
    20  H    6.526006   7.423106   6.938808   7.140795   0.000000
    21  H    5.339553   6.597751   5.391159   5.777810   2.555472
    22  H    5.278374   6.552592   5.705460   5.306838   3.050725
    23  H    4.173668   5.015620   5.047282   4.572637   2.895114
    24  H    4.191398   5.028735   4.618796   5.048546   2.458181
    25  H    2.894177   4.244733   2.805243   3.511683   4.398488
    26  H    2.876189   4.236637   3.472271   2.793998   4.647924
    27  H    2.109124   2.606831   3.412499   2.695147   5.167282
    28  H    2.108592   2.598235   2.703124   3.411832   4.970814
    29  H    2.124785   2.641863   2.695647   1.091179   8.201235
    30  H    2.132323   3.400510   2.674684   1.088861   6.817321
    31  H    2.127097   2.694052   3.405462   1.091159   7.102801
    32  H    2.130477   1.091172   2.671497   2.668675   8.439315
    33  H    2.128816   1.090919   3.399240   2.675612   7.418639
    34  H    2.128998   1.090914   2.674812   3.398996   7.281888
    35  H    2.124836   2.643619   1.091195   2.695163   8.025349
    36  H    2.126855   2.694276   1.091191   3.405620   6.752000
    37  H    2.131697   3.400802   1.088931   2.675103   6.606616
    38  N    8.269032   9.151067   8.980953   8.477385   2.842668
    39  H    8.789859   9.708911   9.370743   9.091804   2.776421
    40  C    9.112372   9.886311   9.981574   9.206337   4.181863
    41  H    8.601868   9.329106   9.584370   8.581114   4.491665
    42  H    9.593829  10.246050  10.491600   9.802388   4.491601
    43  H    9.953381  10.800624  10.782757   9.956848   4.948354
                   21         22         23         24         25
    21  H    0.000000
    22  H    1.774530   0.000000
    23  H    3.054331   2.514229   0.000000
    24  H    2.479711   3.069574   1.772216   0.000000
    25  H    2.593544   3.087689   3.071247   2.508088   0.000000
    26  H    3.138287   2.526405   2.502425   3.065188   1.770495
    27  H    4.720747   4.359700   2.488767   3.054516   3.080846
    28  H    4.390683   4.718697   3.082398   2.522520   2.518485
    29  H    6.747431   6.327343   5.657521   6.056598   4.379787
    30  H    5.175643   4.644695   4.436302   4.920831   3.066705
    31  H    6.045500   5.325735   4.328570   5.137518   4.052948
    32  H    7.436040   7.377280   6.018497   6.037240   4.962669
    33  H    6.860952   6.593672   4.822498   5.147862   4.723015
    34  H    6.631355   6.833704   5.158136   4.849733   4.368641
    35  H    6.417861   6.665535   6.048734   5.702324   3.834364
    36  H    5.399154   5.993995   5.157285   4.389993   2.961606
    37  H    4.745018   5.087602   4.915615   4.483603   2.235865
    38  N    4.529539   3.903544   4.140575   4.804467   6.450329
    39  H    4.565556   4.275302   4.725892   5.061715   6.740046
    40  C    5.878600   5.011515   4.993609   5.931851   7.596967
    41  H    5.954182   4.842094   4.621803   5.837174   7.364499
    42  H    6.516747   5.825379   5.456184   6.268499   8.182465
    43  H    6.448126   5.527594   5.885169   6.818831   8.319464
                   26         27         28         29         30
    26  H    0.000000
    27  H    2.524632   0.000000
    28  H    3.081169   1.770610   0.000000
    29  H    3.818555   3.656437   4.213732   0.000000
    30  H    2.216210   3.119136   3.751687   1.783955   0.000000
    31  H    2.969978   2.422231   3.654903   1.787825   1.786191
    32  H    4.948243   3.607877   3.602586   2.391077   3.652103
    33  H    4.373250   2.344663   2.932214   2.978268   3.684003
    34  H    4.714694   2.948718   2.338503   3.642643   4.231309
    35  H    4.340375   4.215128   3.662419   2.468188   3.027054
    36  H    4.016872   3.660695   2.432704   3.692173   3.667276
    37  H    3.015403   3.746638   3.129645   3.029159   2.425460
    38  N    5.963431   6.587968   7.056762   9.563437   8.094255
    39  H    6.482297   7.207495   7.465761  10.177146   8.669107
    40  C    6.881352   7.283887   7.988455  10.278032   8.888667
    41  H    6.436836   6.731349   7.646563   9.630123   8.308962
    42  H    7.570426   7.676911   8.308489  10.876870   9.576213
    43  H    7.564890   8.195373   8.920338  11.017332   9.558301
                   31         32         33         34         35
    31  H    0.000000
    32  H    3.043145   0.000000
    33  H    2.455560   1.787495   0.000000
    34  H    3.685790   1.787375   1.786682   0.000000
    35  H    3.692326   2.395464   3.645086   2.977534   0.000000
    36  H    4.228572   3.046100   3.684920   2.454325   1.787536
    37  H    3.666778   3.654591   4.230957   3.683217   1.784206
    38  N    8.148166  10.155336   8.877735   9.233804  10.013628
    39  H    8.853726  10.720071   9.518217   9.716303  10.427587
    40  C    8.726285  10.885086   9.470345  10.027871  10.979719
    41  H    8.010586  10.297692   8.834623   9.557528  10.536390
    42  H    9.295890  11.277760   9.792649  10.301826  11.503690
    43  H    9.489507  11.774991  10.400499  10.985536  11.770961
                   36         37         38         39         40
    36  H    0.000000
    37  H    1.786404   0.000000
    38  N    9.029389   8.611018   0.000000
    39  H    9.341941   8.955185   1.011210   0.000000
    40  C   10.086582   9.676447   1.455057   2.139668   0.000000
    41  H    9.773024   9.325658   2.067019   2.981832   1.090334
    42  H   10.510890  10.268889   2.113322   2.553309   1.095926
    43  H   10.932434  10.402214   2.107132   2.511270   1.094926
                   41         42         43
    41  H    0.000000
    42  H    1.781034   0.000000
    43  H    1.782816   1.782244   0.000000
 Stoichiometry    C12H26N3O2(1+)
 Framework group  C1[X(C12H26N3O2)]
 Deg. of freedom   123
 Full point group                 C1      NOp   1
 Largest Abelian subgroup         C1      NOp   1
 Largest concise Abelian subgroup C1      NOp   1
                         Standard orientation:                         
 ---------------------------------------------------------------------
 Center     Atomic      Atomic             Coordinates (Angstroms)
 Number     Number       Type             X           Y           Z
 ---------------------------------------------------------------------
      1          6           0        4.400520   -2.838120    0.541398
      2          1           0        4.892220   -2.299541    1.356990
      3          1           0        5.151609   -3.122608   -0.201299
      4          1           0        3.968545   -3.764007    0.934390
      5          6           0        3.311207   -2.039524   -0.150774
      6          8           0        2.706163   -2.455360   -1.128718
      7          7           0        3.055716   -0.788134    0.378217
      8          1           0        3.413645   -0.574111    1.300661
      9          6           0        1.937009    0.003971   -0.122948
     10          6           0        2.217558    1.515586    0.020446
     11          8           0        1.315171    2.311118    0.276293
     12          6           0        0.588085   -0.394093    0.510404
     13          6           0       -0.615542    0.056919   -0.328587
     14          6           0       -1.956709   -0.310828    0.333708
     15          6           0       -3.101886    0.184973   -0.544231
     16          7           0       -4.528330   -0.060748   -0.022880
     17          6           0       -5.496760    0.494357   -1.037300
     18          6           0       -4.792183   -1.534600    0.144930
     19          6           0       -4.747729    0.642527    1.291789
     20          1           0        1.889490   -0.227532   -1.194428
     21          1           0        0.579286   -1.486131    0.602717
     22          1           0        0.519045    0.032507    1.518722
     23          1           0       -0.555853    1.140376   -0.465861
     24          1           0       -0.558500   -0.411908   -1.320939
     25          1           0       -2.009434   -1.397412    0.471846
     26          1           0       -1.997097    0.153369    1.325999
     27          1           0       -3.031275    1.266649   -0.690148
     28          1           0       -3.069704   -0.292826   -1.527775
     29          1           0       -5.789725    0.511950    1.588210
     30          1           0       -4.092101    0.211145    2.046560
     31          1           0       -4.525468    1.703334    1.165626
     32          1           0       -6.515754    0.331165   -0.682791
     33          1           0       -5.309866    1.562460   -1.157012
     34          1           0       -5.345999   -0.018723   -1.988149
     35          1           0       -5.833801   -1.672217    0.439549
     36          1           0       -4.603867   -2.037046   -0.805219
     37          1           0       -4.134207   -1.933902    0.915252
     38          7           0        3.508535    1.878398   -0.182245
     39          1           0        4.169669    1.147050   -0.407141
     40          6           0        3.954724    3.263342   -0.176299
     41          1           0        3.115241    3.881376    0.143279
     42          1           0        4.272764    3.579587   -1.176246
     43          1           0        4.789261    3.397265    0.519744
 ---------------------------------------------------------------------
 Rotational constants (GHZ):           0.6477834           0.1687645           0.1416593
 Leave Link  202 at Mon Jun  1 09:19:41 2026, MaxMem=    67108864 cpu:               0.1 elap:               0.0
 (Enter /software/local/apps/gaussian-16.0/g16/l301.exe)
 Standard basis: 6-31G(d) (6D, 7F)
 Ernie: Thresh=  0.10000D-02 Tol=  0.10000D-05 Strict=F.
 There are   307 symmetry adapted cartesian basis functions of A   symmetry.
 There are   307 symmetry adapted basis functions of A   symmetry.
   307 basis functions,   580 primitive gaussians,   307 cartesian basis functions
    67 alpha electrons       67 beta electrons
       nuclear repulsion energy      1268.9430731001 Hartrees.
 IExCor=    0 DFT=F Ex=HF Corr=None ExCW=0 ScaHFX=  1.000000
 ScaDFX=  1.000000  1.000000  1.000000  1.000000 ScalE2=  1.000000  1.000000
 IRadAn=      5 IRanWt=     -1 IRanGd=            0 ICorTp=0 IEmpDi=  4
 NAtoms=   43 NActive=   43 NUniq=   43 SFac= 1.00D+00 NAtFMM=   60 NAOKFM=F Big=F
 Integral buffers will be    131072 words long.
 Raffenetti 1 integral format.
 Two-electron integral symmetry is turned on.
 Leave Link  301 at Mon Jun  1 09:19:41 2026, MaxMem=    67108864 cpu:               0.8 elap:               0.1
 (Enter /software/local/apps/gaussian-16.0/g16/l302.exe)
 NPDir=0 NMtPBC=     1 NCelOv=     1 NCel=       1 NClECP=     1 NCelD=      1
         NCelK=      1 NCelE2=     1 NClLst=     1 CellRange=     0.0.
 One-electron integrals computed using PRISM.
 One-electron integral symmetry used in STVInt
 NBasis=   307 RedAO= T EigKep=  2.00D-03  NBF=   307
 NBsUse=   307 1.00D-06 EigRej= -1.00D+00 NBFU=   307
 Leave Link  302 at Mon Jun  1 09:19:41 2026, MaxMem=    67108864 cpu:               2.5 elap:               0.2
 (Enter /software/local/apps/gaussian-16.0/g16/l303.exe)
 DipDrv:  MaxL=1.
 Leave Link  303 at Mon Jun  1 09:19:41 2026, MaxMem=    67108864 cpu:               0.5 elap:               0.1
 (Enter /software/local/apps/gaussian-16.0/g16/l401.exe)
 ExpMin= 1.61D-01 ExpMax= 5.48D+03 ExpMxC= 8.25D+02 IAcc=3 IRadAn=         5 AccDes= 0.00D+00
 Harris functional with IExCor=  205 and IRadAn=       5 diagonalized for initial guess.
 HarFok:  IExCor=  205 AccDes= 0.00D+00 IRadAn=         5 IDoV= 1 UseB2=F ITyADJ=14
 ICtDFT=  3500011 ScaDFX=  1.000000  1.000000  1.000000  1.000000
 FoFCou: FMM=F IPFlag=           0 FMFlag=      100000 FMFlg1=           0
         NFxFlg=           0 DoJE=T BraDBF=F KetDBF=T FulRan=T
         wScrn=  0.000000 ICntrl=       500 IOpCl=  0 I1Cent=   200000004 NGrid=           0
         NMat0=    1 NMatS0=      1 NMatT0=    0 NMatD0=    1 NMtDS0=    0 NMtDT0=    0
 Petite list used in FoFCou.
 Harris En= -783.726254301512    
 JPrj=0 DoOrth=F DoCkMO=F.
 Leave Link  401 at Mon Jun  1 09:19:42 2026, MaxMem=    67108864 cpu:              14.2 elap:               0.9
 (Enter /software/local/apps/gaussian-16.0/g16/l502.exe)
 Integral symmetry usage will be decided dynamically.
 Closed shell SCF:
 Using DIIS extrapolation, IDIIS=  1040.
 NGot=    67108864 LenX=    66910697 LenY=    66816007
 Requested convergence on RMS density matrix=1.00D-08 within 128 cycles.
 Requested convergence on MAX density matrix=1.00D-06.
 Requested convergence on             energy=1.00D-06.
 No special actions if energy rises.
 Fock matrices will be formed incrementally for  20 cycles.
 Integral accuracy reduced to 1.0D-05 until final iterations.

 Cycle   1  Pass 0  IDiag  1:
 FoFJK:  IHMeth= 1 ICntrl=       0 DoSepK=F KAlg= 0 I1Cent=           0 FoldK=F
 IRaf= 740000000 NMat=       1 IRICut=       1 DoRegI=T DoRafI=F ISym2E= 0 IDoP0=0 IntGTp=1.
 FoFCou: FMM=F IPFlag=           0 FMFlag=      100000 FMFlg1=           0
         NFxFlg=           0 DoJE=F BraDBF=F KetDBF=F FulRan=T
         wScrn=  0.000000 ICntrl=         0 IOpCl=  0 I1Cent=           0 NGrid=           0
         NMat0=    1 NMatS0=      1 NMatT0=    0 NMatD0=    1 NMtDS0=    0 NMtDT0=    0
 Symmetry not used in FoFCou.
 E= -781.691014236998    
 DIIS: error= 4.81D-02 at cycle   1 NSaved=   1.
 NSaved= 1 IEnMin= 1 EnMin= -781.691014236998     IErMin= 1 ErrMin= 4.81D-02
 ErrMax= 4.81D-02  0.00D+00 EMaxC= 1.00D-01 BMatC= 1.24D+00 BMatP= 1.24D+00
 IDIUse=3 WtCom= 5.19D-01 WtEn= 4.81D-01
 Coeff-Com:  0.100D+01
 Coeff-En:   0.100D+01
 Coeff:      0.100D+01
 Gap=     0.565 Goal=   None    Shift=    0.000
 GapD=    0.565 DampG=2.000 DampE=0.500 DampFc=1.0000 IDamp=-1.
 RMSDP=3.66D-03 MaxDP=1.15D-01              OVMax= 1.27D-01

 Cycle   2  Pass 0  IDiag  1:
 RMSU=  3.61D-03    CP:  9.69D-01
 E= -782.320043057123     Delta-E=       -0.629028820126 Rises=F Damp=F
 DIIS: error= 1.28D-02 at cycle   2 NSaved=   2.
 NSaved= 2 IEnMin= 2 EnMin= -782.320043057123     IErMin= 2 ErrMin= 1.28D-02
 ErrMax= 1.28D-02  0.00D+00 EMaxC= 1.00D-01 BMatC= 1.69D-01 BMatP= 1.24D+00
 IDIUse=3 WtCom= 8.72D-01 WtEn= 1.28D-01
 Coeff-Com:  0.199D+00 0.801D+00
 Coeff-En:   0.000D+00 0.100D+01
 Coeff:      0.174D+00 0.826D+00
 Gap=     0.550 Goal=   None    Shift=    0.000
 RMSDP=1.44D-03 MaxDP=5.32D-02 DE=-6.29D-01 OVMax= 5.12D-02

 Cycle   3  Pass 0  IDiag  1:
 RMSU=  1.13D-03    CP:  9.75D-01  7.54D-01
 E= -782.435264386965     Delta-E=       -0.115221329841 Rises=F Damp=F
 DIIS: error= 4.88D-03 at cycle   3 NSaved=   3.
 NSaved= 3 IEnMin= 3 EnMin= -782.435264386965     IErMin= 3 ErrMin= 4.88D-03
 ErrMax= 4.88D-03  0.00D+00 EMaxC= 1.00D-01 BMatC= 2.08D-02 BMatP= 1.69D-01
 IDIUse=3 WtCom= 9.51D-01 WtEn= 4.88D-02
 Coeff-Com: -0.153D-01 0.227D+00 0.788D+00
 Coeff-En:   0.000D+00 0.000D+00 0.100D+01
 Coeff:     -0.146D-01 0.216D+00 0.798D+00
 Gap=     0.507 Goal=   None    Shift=    0.000
 RMSDP=4.35D-04 MaxDP=2.41D-02 DE=-1.15D-01 OVMax= 2.84D-02

 Cycle   4  Pass 0  IDiag  1:
 RMSU=  3.08D-04    CP:  9.75D-01  8.28D-01  8.62D-01
 E= -782.450730346175     Delta-E=       -0.015465959210 Rises=F Damp=F
 DIIS: error= 1.67D-03 at cycle   4 NSaved=   4.
 NSaved= 4 IEnMin= 4 EnMin= -782.450730346175     IErMin= 4 ErrMin= 1.67D-03
 ErrMax= 1.67D-03  0.00D+00 EMaxC= 1.00D-01 BMatC= 1.58D-03 BMatP= 2.08D-02
 IDIUse=3 WtCom= 9.83D-01 WtEn= 1.67D-02
 Coeff-Com: -0.119D-01 0.352D-01 0.273D+00 0.704D+00
 Coeff-En:   0.000D+00 0.000D+00 0.000D+00 0.100D+01
 Coeff:     -0.117D-01 0.346D-01 0.268D+00 0.709D+00
 Gap=     0.499 Goal=   None    Shift=    0.000
 RMSDP=1.30D-04 MaxDP=4.70D-03 DE=-1.55D-02 OVMax= 6.44D-03

 Cycle   5  Pass 0  IDiag  1:
 RMSU=  7.78D-05    CP:  9.74D-01  8.26D-01  9.39D-01  8.22D-01
 E= -782.452110131201     Delta-E=       -0.001379785026 Rises=F Damp=F
 DIIS: error= 3.87D-04 at cycle   5 NSaved=   5.
 NSaved= 5 IEnMin= 5 EnMin= -782.452110131201     IErMin= 5 ErrMin= 3.87D-04
 ErrMax= 3.87D-04  0.00D+00 EMaxC= 1.00D-01 BMatC= 4.95D-05 BMatP= 1.58D-03
 IDIUse=3 WtCom= 9.96D-01 WtEn= 3.87D-03
 Coeff-Com:  0.194D-02-0.180D-01-0.732D-01-0.565D-01 0.115D+01
 Coeff-En:   0.000D+00 0.000D+00 0.000D+00 0.000D+00 0.100D+01
 Coeff:      0.193D-02-0.180D-01-0.730D-01-0.563D-01 0.115D+01
 Gap=     0.500 Goal=   None    Shift=    0.000
 RMSDP=5.08D-05 MaxDP=1.68D-03 DE=-1.38D-03 OVMax= 4.69D-03

 Cycle   6  Pass 0  IDiag  1:
 RMSU=  2.50D-05    CP:  9.74D-01  8.27D-01  9.62D-01  9.06D-01  1.33D+00
 E= -782.452229976786     Delta-E=       -0.000119845585 Rises=F Damp=F
 DIIS: error= 1.23D-04 at cycle   6 NSaved=   6.
 NSaved= 6 IEnMin= 6 EnMin= -782.452229976786     IErMin= 6 ErrMin= 1.23D-04
 ErrMax= 1.23D-04  0.00D+00 EMaxC= 1.00D-01 BMatC= 1.20D-05 BMatP= 4.95D-05
 IDIUse=3 WtCom= 9.99D-01 WtEn= 1.23D-03
 Coeff-Com:  0.179D-02-0.929D-02-0.493D-01-0.981D-01 0.352D+00 0.803D+00
 Coeff-En:   0.000D+00 0.000D+00 0.000D+00 0.000D+00 0.000D+00 0.100D+01
 Coeff:      0.179D-02-0.928D-02-0.492D-01-0.980D-01 0.351D+00 0.803D+00
 Gap=     0.500 Goal=   None    Shift=    0.000
 RMSDP=1.92D-05 MaxDP=5.79D-04 DE=-1.20D-04 OVMax= 1.32D-03

 Cycle   7  Pass 0  IDiag  1:
 RMSU=  8.83D-06    CP:  9.74D-01  8.27D-01  9.69D-01  9.24D-01  1.50D+00
                    CP:  1.06D+00
 E= -782.452249163791     Delta-E=       -0.000019187005 Rises=F Damp=F
 DIIS: error= 5.42D-05 at cycle   7 NSaved=   7.
 NSaved= 7 IEnMin= 7 EnMin= -782.452249163791     IErMin= 7 ErrMin= 5.42D-05
 ErrMax= 5.42D-05  0.00D+00 EMaxC= 1.00D-01 BMatC= 1.20D-06 BMatP= 1.20D-05
 IDIUse=1 WtCom= 1.00D+00 WtEn= 0.00D+00
 Coeff-Com: -0.420D-03 0.337D-02 0.164D-01 0.959D-02-0.180D+00-0.163D+00
 Coeff-Com:  0.131D+01
 Coeff:     -0.420D-03 0.337D-02 0.164D-01 0.959D-02-0.180D+00-0.163D+00
 Coeff:      0.131D+01
 Gap=     0.500 Goal=   None    Shift=    0.000
 RMSDP=1.12D-05 MaxDP=3.84D-04 DE=-1.92D-05 OVMax= 1.04D-03

 Cycle   8  Pass 0  IDiag  1:
 RMSU=  3.37D-06    CP:  9.74D-01  8.27D-01  9.72D-01  9.27D-01  1.58D+00
                    CP:  1.29D+00  1.54D+00
 E= -782.452253341701     Delta-E=       -0.000004177911 Rises=F Damp=F
 DIIS: error= 1.74D-05 at cycle   8 NSaved=   8.
 NSaved= 8 IEnMin= 8 EnMin= -782.452253341701     IErMin= 8 ErrMin= 1.74D-05
 ErrMax= 1.74D-05  0.00D+00 EMaxC= 1.00D-01 BMatC= 1.67D-07 BMatP= 1.20D-06
 IDIUse=1 WtCom= 1.00D+00 WtEn= 0.00D+00
 Coeff-Com: -0.248D-03 0.145D-02 0.779D-02 0.109D-01-0.454D-01-0.129D+00
 Coeff-Com:  0.133D+00 0.102D+01
 Coeff:     -0.248D-03 0.145D-02 0.779D-02 0.109D-01-0.454D-01-0.129D+00
 Coeff:      0.133D+00 0.102D+01
 Gap=     0.500 Goal=   None    Shift=    0.000
 RMSDP=3.20D-06 MaxDP=1.12D-04 DE=-4.18D-06 OVMax= 2.81D-04

 Initial convergence to 1.0D-05 achieved.  Increase integral accuracy.
 Cycle   9  Pass 1  IDiag  1:
 E= -782.452254554833     Delta-E=       -0.000001213131 Rises=F Damp=F
 DIIS: error= 3.16D-05 at cycle   1 NSaved=   1.
 NSaved= 1 IEnMin= 1 EnMin= -782.452254554833     IErMin= 1 ErrMin= 3.16D-05
 ErrMax= 3.16D-05  0.00D+00 EMaxC= 1.00D-01 BMatC= 1.82D-07 BMatP= 1.82D-07
 IDIUse=1 WtCom= 1.00D+00 WtEn= 0.00D+00
 Coeff-Com:  0.100D+01
 Coeff:      0.100D+01
 Gap=     0.500 Goal=   None    Shift=    0.000
 RMSDP=3.20D-06 MaxDP=1.12D-04 DE=-1.21D-06 OVMax= 6.71D-05

 Cycle  10  Pass 1  IDiag  1:
 RMSU=  7.19D-06    CP:  1.00D+00
 E= -782.452254716014     Delta-E=       -0.000000161181 Rises=F Damp=F
 DIIS: error= 3.58D-06 at cycle   2 NSaved=   2.
 NSaved= 2 IEnMin= 2 EnMin= -782.452254716014     IErMin= 2 ErrMin= 3.58D-06
 ErrMax= 3.58D-06  0.00D+00 EMaxC= 1.00D-01 BMatC= 5.56D-09 BMatP= 1.82D-07
 IDIUse=1 WtCom= 1.00D+00 WtEn= 0.00D+00
 Coeff-Com: -0.257D-01 0.103D+01
 Coeff:     -0.257D-01 0.103D+01
 Gap=     0.500 Goal=   None    Shift=    0.000
 RMSDP=5.71D-07 MaxDP=1.93D-05 DE=-1.61D-07 OVMax= 4.10D-05

 Cycle  11  Pass 1  IDiag  1:
 RMSU=  3.93D-07    CP:  1.00D+00  1.06D+00
 E= -782.452254729436     Delta-E=       -0.000000013422 Rises=F Damp=F
 DIIS: error= 1.90D-06 at cycle   3 NSaved=   3.
 NSaved= 3 IEnMin= 3 EnMin= -782.452254729436     IErMin= 3 ErrMin= 1.90D-06
 ErrMax= 1.90D-06  0.00D+00 EMaxC= 1.00D-01 BMatC= 2.27D-09 BMatP= 5.56D-09
 IDIUse=1 WtCom= 1.00D+00 WtEn= 0.00D+00
 Coeff-Com: -0.309D-01 0.234D+00 0.797D+00
 Coeff:     -0.309D-01 0.234D+00 0.797D+00
 Gap=     0.500 Goal=   None    Shift=    0.000
 RMSDP=2.13D-07 MaxDP=8.88D-06 DE=-1.34D-08 OVMax= 1.18D-05

 Cycle  12  Pass 1  IDiag  1:
 RMSU=  1.67D-07    CP:  1.00D+00  1.06D+00  1.31D+00
 E= -782.452254733283     Delta-E=       -0.000000003848 Rises=F Damp=F
 DIIS: error= 1.23D-06 at cycle   4 NSaved=   4.
 NSaved= 4 IEnMin= 4 EnMin= -782.452254733283     IErMin= 4 ErrMin= 1.23D-06
 ErrMax= 1.23D-06  0.00D+00 EMaxC= 1.00D-01 BMatC= 4.99D-10 BMatP= 2.27D-09
 IDIUse=1 WtCom= 1.00D+00 WtEn= 0.00D+00
 Coeff-Com:  0.129D-01-0.387D+00-0.217D+00 0.159D+01
 Coeff:      0.129D-01-0.387D+00-0.217D+00 0.159D+01
 Gap=     0.500 Goal=   None    Shift=    0.000
 RMSDP=2.71D-07 MaxDP=1.32D-05 DE=-3.85D-09 OVMax= 2.60D-05

 Cycle  13  Pass 1  IDiag  1:
 RMSU=  6.89D-08    CP:  1.00D+00  1.07D+00  1.89D+00  1.74D+00
 E= -782.452254735584     Delta-E=       -0.000000002301 Rises=F Damp=F
 DIIS: error= 3.84D-07 at cycle   5 NSaved=   5.
 NSaved= 5 IEnMin= 5 EnMin= -782.452254735584     IErMin= 5 ErrMin= 3.84D-07
 ErrMax= 3.84D-07  0.00D+00 EMaxC= 1.00D-01 BMatC= 5.46D-11 BMatP= 4.99D-10
 IDIUse=1 WtCom= 1.00D+00 WtEn= 0.00D+00
 Coeff-Com:  0.671D-02-0.155D+00-0.157D+00 0.559D+00 0.747D+00
 Coeff:      0.671D-02-0.155D+00-0.157D+00 0.559D+00 0.747D+00
 Gap=     0.500 Goal=   None    Shift=    0.000
 RMSDP=5.18D-08 MaxDP=2.00D-06 DE=-2.30D-09 OVMax= 3.46D-06

 Cycle  14  Pass 1  IDiag  1:
 RMSU=  2.04D-08    CP:  1.00D+00  1.07D+00  1.98D+00  1.93D+00  1.08D+00
 E= -782.452254735673     Delta-E=       -0.000000000088 Rises=F Damp=F
 DIIS: error= 5.44D-08 at cycle   6 NSaved=   6.
 NSaved= 6 IEnMin= 6 EnMin= -782.452254735673     IErMin= 6 ErrMin= 5.44D-08
 ErrMax= 5.44D-08  0.00D+00 EMaxC= 1.00D-01 BMatC= 2.13D-12 BMatP= 5.46D-11
 IDIUse=1 WtCom= 1.00D+00 WtEn= 0.00D+00
 Coeff-Com: -0.114D-02 0.364D-01 0.143D-01-0.131D+00 0.186D-01 0.106D+01
 Coeff:     -0.114D-02 0.364D-01 0.143D-01-0.131D+00 0.186D-01 0.106D+01
 Gap=     0.500 Goal=   None    Shift=    0.000
 RMSDP=1.14D-08 MaxDP=4.18D-07 DE=-8.82D-11 OVMax= 8.59D-07

 Cycle  15  Pass 1  IDiag  1:
 RMSU=  6.25D-09    CP:  1.00D+00  1.07D+00  1.98D+00  1.96D+00  1.18D+00
                    CP:  1.20D+00
 E= -782.452254735674     Delta-E=       -0.000000000002 Rises=F Damp=F
 DIIS: error= 2.39D-08 at cycle   7 NSaved=   7.
 NSaved= 7 IEnMin= 7 EnMin= -782.452254735674     IErMin= 7 ErrMin= 2.39D-08
 ErrMax= 2.39D-08  0.00D+00 EMaxC= 1.00D-01 BMatC= 3.52D-13 BMatP= 2.13D-12
 IDIUse=1 WtCom= 1.00D+00 WtEn= 0.00D+00
 Coeff-Com: -0.841D-03 0.213D-01 0.154D-01-0.782D-01-0.650D-01 0.195D+00
 Coeff-Com:  0.912D+00
 Coeff:     -0.841D-03 0.213D-01 0.154D-01-0.782D-01-0.650D-01 0.195D+00
 Coeff:      0.912D+00
 Gap=     0.500 Goal=   None    Shift=    0.000
 RMSDP=4.71D-09 MaxDP=2.23D-07 DE=-1.82D-12 OVMax= 3.43D-07

 SCF Done:  E(RHF) =  -782.452254736     A.U. after   15 cycles
            NFock= 15  Conv=0.47D-08     -V/T= 2.0024
 KE= 7.805659763951D+02 PE=-4.349655650525D+03 EE= 1.517694346294D+03
 Leave Link  502 at Mon Jun  1 09:19:54 2026, MaxMem=    67108864 cpu:             184.5 elap:              11.8
 (Enter /software/local/apps/gaussian-16.0/g16/l601.exe)
 Copying SCF densities to generalized density rwf, IOpCl= 0 IROHF=0.
 SCF density gives NOpUse=  1 NOpAll=  1.

 **********************************************************************

            Population analysis using the SCF Density.

 **********************************************************************

 Orbital symmetries:
 BldTbl:  Degeneracy threshold= 1.00D-02
       Occupied  (A) (A) (A) (A) (A) (A) (A) (A) (A) (A) (A) (A)
                 (A) (A) (A) (A) (A) (A) (A) (A) (A) (A) (A) (A)
                 (A) (A) (A) (A) (A) (A) (A) (A) (A) (A) (A) (A)
                 (A) (A) (A) (A) (A) (A) (A) (A) (A) (A) (A) (A)
                 (A) (A) (A) (A) (A) (A) (A) (A) (A) (A) (A) (A)
                 (A) (A) (A) (A) (A) (A) (A)
       Virtual   (A) (A) (A) (A) (A) (A) (A) (A) (A) (A) (A) (A)
                 (A) (A) (A) (A) (A) (A) (A) (A) (A) (A) (A) (A)
                 (A) (A) (A) (A) (A) (A) (A) (A) (A) (A) (A) (A)
                 (A) (A) (A) (A) (A) (A) (A) (A) (A) (A) (A) (A)
                 (A) (A) (A) (A) (A) (A) (A) (A) (A) (A) (A) (A)
                 (A) (A) (A) (A) (A) (A) (A) (A) (A) (A) (A) (A)
                 (A) (A) (A) (A) (A) (A) (A) (A) (A) (A) (A) (A)
                 (A) (A) (A) (A) (A) (A) (A) (A) (A) (A) (A) (A)
                 (A) (A) (A) (A) (A) (A) (A) (A) (A) (A) (A) (A)
                 (A) (A) (A) (A) (A) (A) (A) (A) (A) (A) (A) (A)
                 (A) (A) (A) (A) (A) (A) (A) (A) (A) (A) (A) (A)
                 (A) (A) (A) (A) (A) (A) (A) (A) (A) (A) (A) (A)
                 (A) (A) (A) (A) (A) (A) (A) (A) (A) (A) (A) (A)
                 (A) (A) (A) (A) (A) (A) (A) (A) (A) (A) (A) (A)
                 (A) (A) (A) (A) (A) (A) (A) (A) (A) (A) (A) (A)
                 (A) (A) (A) (A) (A) (A) (A) (A) (A) (A) (A) (A)
                 (A) (A) (A) (A) (A) (A) (A) (A) (A) (A) (A) (A)
                 (A) (A) (A) (A) (A) (A) (A) (A) (A) (A) (A) (A)
                 (A) (A) (A) (A) (A) (A) (A) (A) (A) (A) (A) (A)
                 (A) (A) (A) (A) (A) (A) (A) (A) (A) (A) (A) (A)
 The electronic state is 1-A.
 Alpha  occ. eigenvalues --  -20.60976 -20.60744 -15.85689 -15.67998 -15.66878
 Alpha  occ. eigenvalues --  -11.44125 -11.44018 -11.44012 -11.43963 -11.43873
 Alpha  occ. eigenvalues --  -11.43697 -11.36989 -11.36940 -11.33453 -11.33079
 Alpha  occ. eigenvalues --  -11.32503 -11.31496  -1.48503  -1.46349  -1.45640
 Alpha  occ. eigenvalues --   -1.32535  -1.29818  -1.21928  -1.15584  -1.15540
 Alpha  occ. eigenvalues --   -1.15182  -1.10077  -1.06233  -1.03939  -0.99800
 Alpha  occ. eigenvalues --   -0.95994  -0.91771  -0.87614  -0.86249  -0.85454
 Alpha  occ. eigenvalues --   -0.85207  -0.83379  -0.81130  -0.79021  -0.75754
 Alpha  occ. eigenvalues --   -0.74780  -0.74362  -0.73591  -0.72286  -0.71700
 Alpha  occ. eigenvalues --   -0.71180  -0.70998  -0.70378  -0.70187  -0.69599
 Alpha  occ. eigenvalues --   -0.69096  -0.67949  -0.66381  -0.66037  -0.64361
 Alpha  occ. eigenvalues --   -0.64024  -0.62175  -0.61895  -0.61491  -0.60589
 Alpha  occ. eigenvalues --   -0.58877  -0.58010  -0.57126  -0.50664  -0.50264
 Alpha  occ. eigenvalues --   -0.47659  -0.46256
 Alpha virt. eigenvalues --    0.03733   0.09781   0.10112   0.10184   0.10335
 Alpha virt. eigenvalues --    0.11029   0.11278   0.12317   0.12835   0.13947
 Alpha virt. eigenvalues --    0.14237   0.15548   0.15726   0.17024   0.18218
 Alpha virt. eigenvalues --    0.18387   0.19010   0.19576   0.19951   0.20092
 Alpha virt. eigenvalues --    0.20569   0.21055   0.21801   0.22651   0.23015
 Alpha virt. eigenvalues --    0.24201   0.24322   0.25106   0.25434   0.25708
 Alpha virt. eigenvalues --    0.26799   0.26947   0.28346   0.29771   0.30139
 Alpha virt. eigenvalues --    0.31651   0.33749   0.37429   0.38448   0.39285
 Alpha virt. eigenvalues --    0.42890   0.46936   0.49435   0.52066   0.52675
 Alpha virt. eigenvalues --    0.53131   0.54447   0.55676   0.56923   0.59748
 Alpha virt. eigenvalues --    0.64163   0.64994   0.65590   0.66168   0.67118
 Alpha virt. eigenvalues --    0.67243   0.68114   0.68627   0.70798   0.71818
 Alpha virt. eigenvalues --    0.72186   0.72788   0.76850   0.77213   0.78723
 Alpha virt. eigenvalues --    0.80106   0.81457   0.82745   0.83289   0.86500
 Alpha virt. eigenvalues --    0.87060   0.87449   0.88348   0.88818   0.89802
 Alpha virt. eigenvalues --    0.91338   0.91430   0.91685   0.92308   0.93715
 Alpha virt. eigenvalues --    0.94366   0.95407   0.97036   0.97958   0.98432
 Alpha virt. eigenvalues --    0.99792   0.99864   1.00408   1.01375   1.01564
 Alpha virt. eigenvalues --    1.01660   1.02528   1.03493   1.04967   1.05291
 Alpha virt. eigenvalues --    1.05791   1.06106   1.06326   1.07272   1.07557
 Alpha virt. eigenvalues --    1.08703   1.09216   1.09885   1.10409   1.10968
 Alpha virt. eigenvalues --    1.11199   1.12352   1.12709   1.13229   1.14020
 Alpha virt. eigenvalues --    1.14442   1.14881   1.15625   1.17334   1.18135
 Alpha virt. eigenvalues --    1.21962   1.27450   1.27927   1.29838   1.33918
 Alpha virt. eigenvalues --    1.35587   1.38855   1.40476   1.41289   1.44029
 Alpha virt. eigenvalues --    1.45264   1.47021   1.50780   1.52203   1.53638
 Alpha virt. eigenvalues --    1.57787   1.58563   1.58822   1.60493   1.62091
 Alpha virt. eigenvalues --    1.63257   1.64796   1.67925   1.70138   1.71415
 Alpha virt. eigenvalues --    1.74007   1.80335   1.81442   1.83443   1.83500
 Alpha virt. eigenvalues --    1.86298   1.89175   1.93401   1.94500   1.95483
 Alpha virt. eigenvalues --    1.97188   2.00796   2.01335   2.02317   2.03522
 Alpha virt. eigenvalues --    2.03992   2.04467   2.04817   2.05736   2.08425
 Alpha virt. eigenvalues --    2.08986   2.09398   2.11236   2.12385   2.14859
 Alpha virt. eigenvalues --    2.15780   2.17310   2.19995   2.20864   2.21188
 Alpha virt. eigenvalues --    2.22940   2.23509   2.23545   2.24646   2.26251
 Alpha virt. eigenvalues --    2.27284   2.28852   2.29093   2.32929   2.33836
 Alpha virt. eigenvalues --    2.34837   2.37755   2.39030   2.39521   2.40632
 Alpha virt. eigenvalues --    2.40953   2.44272   2.45927   2.47018   2.47496
 Alpha virt. eigenvalues --    2.50841   2.53840   2.54517   2.56771   2.58107
 Alpha virt. eigenvalues --    2.59932   2.61950   2.63552   2.65752   2.66902
 Alpha virt. eigenvalues --    2.67493   2.71896   2.72163   2.72758   2.80596
 Alpha virt. eigenvalues --    2.82227   2.86344   2.87833   2.87950   2.90283
 Alpha virt. eigenvalues --    2.91947   2.94555   2.94728   2.96416   2.98316
 Alpha virt. eigenvalues --    3.03841   3.10702   3.14257   3.23666   3.27691
 Alpha virt. eigenvalues --    3.31919   3.41691   3.46071   4.30070   4.32779
 Alpha virt. eigenvalues --    4.33921   4.41906   4.45893   4.48576   4.52446
 Alpha virt. eigenvalues --    4.53470   4.53680   4.58772   4.61276   4.63861
 Alpha virt. eigenvalues --    4.69690   4.79875   4.84035   4.90192   4.98005
          Condensed to atoms (all electrons):
               1          2          3          4          5          6
     1  C    5.243691   0.376591   0.381705   0.380382   0.358784  -0.065277
     2  H    0.376591   0.519842  -0.021520  -0.022198  -0.039676   0.002475
     3  H    0.381705  -0.021520   0.455399  -0.017758  -0.027347   0.000454
     4  H    0.380382  -0.022198  -0.017758   0.468929  -0.028007   0.000098
     5  C    0.358784  -0.039676  -0.027347  -0.028007   4.188597   0.579696
     6  O   -0.065277   0.002475   0.000454   0.000098   0.579696   8.176452
     7  N   -0.099153   0.004788   0.001946   0.001559   0.251752  -0.100994
     8  H    0.000644   0.001209   0.000093  -0.000177  -0.013328   0.002056
     9  C    0.005101   0.000045  -0.000120  -0.000127  -0.028959   0.004466
    10  C   -0.000051  -0.000015   0.000003  -0.000001   0.002205   0.000346
    11  O    0.000000   0.000000  -0.000000  -0.000000  -0.000054  -0.000001
    12  C   -0.000224   0.000008  -0.000003   0.000040  -0.002692  -0.000750
    13  C    0.000001   0.000000   0.000000  -0.000000  -0.000057  -0.000211
    14  C   -0.000000   0.000000  -0.000000   0.000000  -0.000001   0.000002
    15  C    0.000000   0.000000   0.000000  -0.000000   0.000000  -0.000000
    16  N   -0.000000   0.000000  -0.000000   0.000000  -0.000000  -0.000000
    17  C    0.000000  -0.000000   0.000000  -0.000000   0.000000  -0.000000
    18  C    0.000000  -0.000000  -0.000000  -0.000000   0.000000   0.000000
    19  C    0.000000  -0.000000  -0.000000  -0.000000   0.000000   0.000000
    20  H    0.000396  -0.000028   0.000005  -0.000012  -0.002751   0.010007
    21  H   -0.000014  -0.000008   0.000001   0.000005   0.002180   0.002559
    22  H    0.000002  -0.000001   0.000000  -0.000002   0.000126   0.000018
    23  H    0.000000  -0.000000  -0.000000   0.000000  -0.000002  -0.000000
    24  H    0.000000  -0.000000   0.000000  -0.000000   0.000004   0.000114
    25  H   -0.000000  -0.000000   0.000000   0.000000  -0.000001  -0.000001
    26  H   -0.000000   0.000000  -0.000000   0.000000  -0.000000  -0.000000
    27  H    0.000000  -0.000000   0.000000  -0.000000  -0.000000   0.000000
    28  H   -0.000000   0.000000  -0.000000   0.000000  -0.000000  -0.000000
    29  H   -0.000000   0.000000  -0.000000   0.000000  -0.000000   0.000000
    30  H    0.000000  -0.000000   0.000000  -0.000000   0.000000   0.000000
    31  H    0.000000  -0.000000   0.000000  -0.000000  -0.000000  -0.000000
    32  H   -0.000000   0.000000  -0.000000   0.000000  -0.000000  -0.000000
    33  H    0.000000  -0.000000   0.000000  -0.000000  -0.000000  -0.000000
    34  H    0.000000  -0.000000   0.000000  -0.000000   0.000000   0.000000
    35  H    0.000000  -0.000000  -0.000000   0.000000  -0.000000   0.000000
    36  H   -0.000000  -0.000000   0.000000  -0.000000  -0.000000  -0.000000
    37  H    0.000000  -0.000000   0.000000  -0.000000   0.000000   0.000000
    38  N   -0.000015  -0.000003   0.000001  -0.000000   0.000118   0.000017
    39  H    0.000045   0.000014  -0.000009   0.000001  -0.000084  -0.000073
    40  C   -0.000000  -0.000000  -0.000000   0.000000   0.000008   0.000000
    41  H   -0.000000  -0.000000   0.000000  -0.000000   0.000000   0.000000
    42  H   -0.000000  -0.000000   0.000000  -0.000000   0.000000  -0.000000
    43  H    0.000000   0.000000  -0.000000   0.000000  -0.000001   0.000000
               7          8          9         10         11         12
     1  C   -0.099153   0.000644   0.005101  -0.000051   0.000000  -0.000224
     2  H    0.004788   0.001209   0.000045  -0.000015   0.000000   0.000008
     3  H    0.001946   0.000093  -0.000120   0.000003  -0.000000  -0.000003
     4  H    0.001559  -0.000177  -0.000127  -0.000001  -0.000000   0.000040
     5  C    0.251752  -0.013328  -0.028959   0.002205  -0.000054  -0.002692
     6  O   -0.100994   0.002056   0.004466   0.000346  -0.000001  -0.000750
     7  N    7.430366   0.314714   0.175890  -0.037243   0.001201  -0.061185
     8  H    0.314714   0.321062  -0.025326  -0.002251  -0.000002   0.000625
     9  C    0.175890  -0.025326   5.118550   0.365166  -0.075997   0.346377
    10  C   -0.037243  -0.002251   0.365166   4.132256   0.571622  -0.054538
    11  O    0.001201  -0.000002  -0.075997   0.571622   8.225974   0.006927
    12  C   -0.061185   0.000625   0.346377  -0.054538   0.006927   5.099852
    13  C    0.003889  -0.000049  -0.040554  -0.000605  -0.011381   0.332303
    14  C   -0.000062   0.000002   0.003839  -0.000065   0.000218  -0.047554
    15  C    0.000000  -0.000000  -0.000059  -0.000001   0.000005   0.003756
    16  N   -0.000000   0.000000   0.000000   0.000000   0.000000  -0.000040
    17  C    0.000000  -0.000000  -0.000000   0.000000  -0.000000   0.000001
    18  C   -0.000000  -0.000000   0.000000  -0.000000   0.000000   0.000000
    19  C   -0.000000  -0.000000   0.000000   0.000000   0.000000   0.000001
    20  H   -0.037935   0.003090   0.397672  -0.027139   0.000420  -0.038385
    21  H   -0.005445   0.000023  -0.039589   0.003627   0.000196   0.402794
    22  H    0.000832   0.000846  -0.036815  -0.003397   0.003287   0.391082
    23  H    0.000027   0.000004  -0.003846   0.001438   0.010776  -0.031804
    24  H   -0.000031   0.000001  -0.002407   0.000254   0.000351  -0.040191
    25  H   -0.000002   0.000000  -0.000102  -0.000003  -0.000006  -0.001181
    26  H   -0.000000  -0.000000  -0.000057   0.000010   0.000074  -0.002349
    27  H   -0.000000   0.000000  -0.000001  -0.000001  -0.000018  -0.000044
    28  H    0.000000  -0.000000  -0.000002   0.000000   0.000000  -0.000051
    29  H    0.000000  -0.000000   0.000000  -0.000000   0.000000  -0.000000
    30  H    0.000000  -0.000000   0.000000  -0.000000  -0.000000   0.000001
    31  H    0.000000   0.000000  -0.000000   0.000000   0.000000   0.000000
    32  H   -0.000000   0.000000   0.000000  -0.000000   0.000000  -0.000000
    33  H    0.000000  -0.000000  -0.000000   0.000000   0.000000   0.000000
    34  H    0.000000  -0.000000  -0.000000   0.000000  -0.000000   0.000000
    35  H    0.000000   0.000000   0.000000  -0.000000  -0.000000  -0.000000
    36  H   -0.000000  -0.000000  -0.000000   0.000000  -0.000000   0.000000
    37  H    0.000000  -0.000000   0.000000  -0.000000  -0.000000   0.000000
    38  N   -0.007715   0.003193  -0.116905   0.317973  -0.090380   0.003514
    39  H    0.010468  -0.000378  -0.001889  -0.023137   0.002119   0.000334
    40  C   -0.000019  -0.000108   0.003553  -0.025589  -0.003365  -0.000071
    41  H   -0.000036  -0.000004   0.000615  -0.001483   0.008800  -0.000011
    42  H   -0.000002   0.000006  -0.000173   0.000567   0.000350  -0.000002
    43  H    0.000007  -0.000020   0.000006   0.000978   0.000236   0.000004
              13         14         15         16         17         18
     1  C    0.000001  -0.000000   0.000000  -0.000000   0.000000   0.000000
     2  H    0.000000   0.000000   0.000000   0.000000  -0.000000  -0.000000
     3  H    0.000000  -0.000000   0.000000  -0.000000   0.000000  -0.000000
     4  H   -0.000000   0.000000  -0.000000   0.000000  -0.000000  -0.000000
     5  C   -0.000057  -0.000001   0.000000  -0.000000   0.000000   0.000000
     6  O   -0.000211   0.000002  -0.000000  -0.000000  -0.000000   0.000000
     7  N    0.003889  -0.000062   0.000000  -0.000000   0.000000  -0.000000
     8  H   -0.000049   0.000002  -0.000000   0.000000  -0.000000  -0.000000
     9  C   -0.040554   0.003839  -0.000059   0.000000  -0.000000   0.000000
    10  C   -0.000605  -0.000065  -0.000001   0.000000   0.000000  -0.000000
    11  O   -0.011381   0.000218   0.000005   0.000000  -0.000000   0.000000
    12  C    0.332303  -0.047554   0.003756  -0.000040   0.000001   0.000000
    13  C    5.145021   0.325658  -0.049614   0.002559  -0.000074  -0.000075
    14  C    0.325658   5.152537   0.322055  -0.036659   0.002940  -0.001923
    15  C   -0.049614   0.322055   5.164748   0.157028  -0.058936  -0.047173
    16  N    0.002559  -0.036659   0.157028   7.266670   0.195336   0.181166
    17  C   -0.000074   0.002940  -0.058936   0.195336   5.138398  -0.055610
    18  C   -0.000075  -0.001923  -0.047173   0.181166  -0.055610   5.137360
    19  C   -0.000081  -0.001903  -0.047364   0.180961  -0.055600  -0.054691
    20  H   -0.002218  -0.000049   0.000003   0.000000   0.000000   0.000000
    21  H   -0.039095  -0.004077  -0.000042   0.000000  -0.000000  -0.000002
    22  H   -0.035484  -0.004451   0.000009   0.000001   0.000000   0.000000
    23  H    0.393476  -0.036057  -0.004517  -0.000010  -0.000003  -0.000004
    24  H    0.396303  -0.041969  -0.004271  -0.000019  -0.000003   0.000004
    25  H   -0.033578   0.395592  -0.040395  -0.001457  -0.000116  -0.000673
    26  H   -0.034996   0.398278  -0.040514  -0.001580  -0.000110  -0.000128
    27  H   -0.000255  -0.034366   0.401790  -0.037469  -0.003169   0.003385
    28  H   -0.001117  -0.033818   0.401516  -0.037770  -0.003203  -0.003242
    29  H    0.000001   0.000051   0.003214  -0.032536  -0.003285  -0.002818
    30  H    0.000024   0.000980  -0.003761  -0.029996   0.003342  -0.002480
    31  H   -0.000024  -0.000350  -0.002064  -0.032324  -0.002650   0.003432
    32  H    0.000001  -0.000077   0.003749  -0.032349   0.393576  -0.003047
    33  H   -0.000007  -0.000035  -0.003079  -0.031760   0.393943   0.003546
    34  H   -0.000005  -0.000041  -0.003195  -0.031822   0.393972  -0.002817
    35  H    0.000001   0.000047   0.003204  -0.032504  -0.003244   0.394423
    36  H   -0.000023  -0.000396  -0.002027  -0.032518  -0.002660   0.393650
    37  H    0.000025   0.000927  -0.003801  -0.029945   0.003333   0.394793
    38  N   -0.000127   0.000001  -0.000000   0.000000  -0.000000   0.000000
    39  H   -0.000010   0.000000  -0.000000   0.000000  -0.000000  -0.000000
    40  C    0.000001  -0.000000   0.000000  -0.000000   0.000000  -0.000000
    41  H    0.000002  -0.000000   0.000000  -0.000000   0.000000  -0.000000
    42  H    0.000000   0.000000   0.000000   0.000000  -0.000000   0.000000
    43  H   -0.000000   0.000000  -0.000000   0.000000  -0.000000   0.000000
              19         20         21         22         23         24
     1  C    0.000000   0.000396  -0.000014   0.000002   0.000000   0.000000
     2  H   -0.000000  -0.000028  -0.000008  -0.000001  -0.000000  -0.000000
     3  H   -0.000000   0.000005   0.000001   0.000000  -0.000000   0.000000
     4  H   -0.000000  -0.000012   0.000005  -0.000002   0.000000  -0.000000
     5  C    0.000000  -0.002751   0.002180   0.000126  -0.000002   0.000004
     6  O    0.000000   0.010007   0.002559   0.000018  -0.000000   0.000114
     7  N   -0.000000  -0.037935  -0.005445   0.000832   0.000027  -0.000031
     8  H   -0.000000   0.003090   0.000023   0.000846   0.000004   0.000001
     9  C    0.000000   0.397672  -0.039589  -0.036815  -0.003846  -0.002407
    10  C    0.000000  -0.027139   0.003627  -0.003397   0.001438   0.000254
    11  O    0.000000   0.000420   0.000196   0.003287   0.010776   0.000351
    12  C    0.000001  -0.038385   0.402794   0.391082  -0.031804  -0.040191
    13  C   -0.000081  -0.002218  -0.039095  -0.035484   0.393476   0.396303
    14  C   -0.001903  -0.000049  -0.004077  -0.004451  -0.036057  -0.041969
    15  C   -0.047364   0.000003  -0.000042   0.000009  -0.004517  -0.004271
    16  N    0.180961   0.000000   0.000000   0.000001  -0.000010  -0.000019
    17  C   -0.055600   0.000000  -0.000000   0.000000  -0.000003  -0.000003
    18  C   -0.054691   0.000000  -0.000002   0.000000  -0.000004   0.000004
    19  C    5.138263  -0.000000   0.000000  -0.000002   0.000007  -0.000004
    20  H   -0.000000   0.440678  -0.000854   0.003443   0.000343   0.002235
    21  H    0.000000  -0.000854   0.513368  -0.026177   0.003130  -0.002012
    22  H   -0.000002   0.003443  -0.026177   0.524541  -0.001507   0.003660
    23  H    0.000007   0.000343   0.003130  -0.001507   0.456322  -0.024327
    24  H   -0.000004   0.002235  -0.002012   0.003660  -0.024327   0.531412
    25  H   -0.000068   0.000014   0.001776   0.000307   0.003182  -0.002422
    26  H   -0.000712  -0.000002   0.000301   0.001825  -0.001807   0.003772
    27  H   -0.003215   0.000001  -0.000002   0.000017   0.001805   0.000243
    28  H    0.003432  -0.000002   0.000016  -0.000003   0.000325   0.001794
    29  H    0.394301   0.000000  -0.000000   0.000000  -0.000000   0.000000
    30  H    0.394743  -0.000000   0.000000  -0.000002   0.000004  -0.000001
    31  H    0.393598   0.000000  -0.000000   0.000000  -0.000003   0.000001
    32  H   -0.003048   0.000000   0.000000  -0.000000   0.000000   0.000000
    33  H   -0.002810  -0.000000  -0.000000   0.000000  -0.000002   0.000001
    34  H    0.003548  -0.000000   0.000000  -0.000000   0.000000  -0.000002
    35  H   -0.002793   0.000000   0.000000   0.000000   0.000000  -0.000000
    36  H    0.003445  -0.000000   0.000000  -0.000000   0.000000  -0.000003
    37  H   -0.002465  -0.000000  -0.000002   0.000000  -0.000000   0.000004
    38  N    0.000000  -0.000544  -0.000030  -0.000047   0.000144  -0.000003
    39  H   -0.000000  -0.000273  -0.000004  -0.000016  -0.000007  -0.000001
    40  C    0.000000  -0.000158   0.000001  -0.000006   0.000003  -0.000000
    41  H    0.000000  -0.000010   0.000000  -0.000002  -0.000002  -0.000000
    42  H   -0.000000   0.000018  -0.000000   0.000000   0.000001   0.000000
    43  H   -0.000000  -0.000002  -0.000000   0.000000  -0.000000  -0.000000
              25         26         27         28         29         30
     1  C   -0.000000  -0.000000   0.000000  -0.000000  -0.000000   0.000000
     2  H   -0.000000   0.000000  -0.000000   0.000000   0.000000  -0.000000
     3  H    0.000000  -0.000000   0.000000  -0.000000  -0.000000   0.000000
     4  H    0.000000   0.000000  -0.000000   0.000000   0.000000  -0.000000
     5  C   -0.000001  -0.000000  -0.000000  -0.000000  -0.000000   0.000000
     6  O   -0.000001  -0.000000   0.000000  -0.000000   0.000000   0.000000
     7  N   -0.000002  -0.000000  -0.000000   0.000000   0.000000   0.000000
     8  H    0.000000  -0.000000   0.000000  -0.000000  -0.000000  -0.000000
     9  C   -0.000102  -0.000057  -0.000001  -0.000002   0.000000   0.000000
    10  C   -0.000003   0.000010  -0.000001   0.000000  -0.000000  -0.000000
    11  O   -0.000006   0.000074  -0.000018   0.000000   0.000000  -0.000000
    12  C   -0.001181  -0.002349  -0.000044  -0.000051  -0.000000   0.000001
    13  C   -0.033578  -0.034996  -0.000255  -0.001117   0.000001   0.000024
    14  C    0.395592   0.398278  -0.034366  -0.033818   0.000051   0.000980
    15  C   -0.040395  -0.040514   0.401790   0.401516   0.003214  -0.003761
    16  N   -0.001457  -0.001580  -0.037469  -0.037770  -0.032536  -0.029996
    17  C   -0.000116  -0.000110  -0.003169  -0.003203  -0.003285   0.003342
    18  C   -0.000673  -0.000128   0.003385  -0.003242  -0.002818  -0.002480
    19  C   -0.000068  -0.000712  -0.003215   0.003432   0.394301   0.394743
    20  H    0.000014  -0.000002   0.000001  -0.000002   0.000000  -0.000000
    21  H    0.001776   0.000301  -0.000002   0.000016  -0.000000   0.000000
    22  H    0.000307   0.001825   0.000017  -0.000003   0.000000  -0.000002
    23  H    0.003182  -0.001807   0.001805   0.000325  -0.000000   0.000004
    24  H   -0.002422   0.003772   0.000243   0.001794   0.000000  -0.000001
    25  H    0.515488  -0.026894   0.003131  -0.001949  -0.000022  -0.000042
    26  H   -0.026894   0.509576  -0.001879   0.003067   0.000134  -0.000349
    27  H    0.003131  -0.001879   0.453662  -0.021116  -0.000104   0.000024
    28  H   -0.001949   0.003067  -0.021116   0.459432  -0.000064  -0.000048
    29  H   -0.000022   0.000134  -0.000104  -0.000064   0.442277  -0.020396
    30  H   -0.000042  -0.000349   0.000024  -0.000048  -0.020396   0.432273
    31  H    0.000020  -0.000073   0.002114  -0.000011  -0.019566  -0.018344
    32  H    0.000002   0.000002  -0.000020  -0.000012   0.002099  -0.000032
    33  H   -0.000000   0.000004   0.002258  -0.000198  -0.000175  -0.000029
    34  H    0.000004  -0.000000  -0.000165   0.002271  -0.000014  -0.000083
    35  H    0.000130  -0.000024  -0.000062  -0.000108   0.001879  -0.000140
    36  H   -0.000062   0.000024  -0.000011   0.002123  -0.000047  -0.000022
    37  H   -0.000545  -0.000037  -0.000050   0.000040  -0.000136   0.001648
    38  N   -0.000000   0.000000  -0.000000  -0.000000  -0.000000  -0.000000
    39  H    0.000000  -0.000000   0.000000   0.000000  -0.000000   0.000000
    40  C    0.000000   0.000000  -0.000000   0.000000   0.000000   0.000000
    41  H    0.000000  -0.000000   0.000000   0.000000  -0.000000   0.000000
    42  H   -0.000000  -0.000000  -0.000000  -0.000000  -0.000000  -0.000000
    43  H    0.000000  -0.000000   0.000000   0.000000  -0.000000  -0.000000
              31         32         33         34         35         36
     1  C    0.000000  -0.000000   0.000000   0.000000   0.000000  -0.000000
     2  H   -0.000000   0.000000  -0.000000  -0.000000  -0.000000  -0.000000
     3  H    0.000000  -0.000000   0.000000   0.000000  -0.000000   0.000000
     4  H   -0.000000   0.000000  -0.000000  -0.000000   0.000000  -0.000000
     5  C   -0.000000  -0.000000  -0.000000   0.000000  -0.000000  -0.000000
     6  O   -0.000000  -0.000000  -0.000000   0.000000   0.000000  -0.000000
     7  N    0.000000  -0.000000   0.000000   0.000000   0.000000  -0.000000
     8  H    0.000000   0.000000  -0.000000  -0.000000   0.000000  -0.000000
     9  C   -0.000000   0.000000  -0.000000  -0.000000   0.000000  -0.000000
    10  C    0.000000  -0.000000   0.000000   0.000000  -0.000000   0.000000
    11  O    0.000000   0.000000   0.000000  -0.000000  -0.000000  -0.000000
    12  C    0.000000  -0.000000   0.000000   0.000000  -0.000000   0.000000
    13  C   -0.000024   0.000001  -0.000007  -0.000005   0.000001  -0.000023
    14  C   -0.000350  -0.000077  -0.000035  -0.000041   0.000047  -0.000396
    15  C   -0.002064   0.003749  -0.003079  -0.003195   0.003204  -0.002027
    16  N   -0.032324  -0.032349  -0.031760  -0.031822  -0.032504  -0.032518
    17  C   -0.002650   0.393576   0.393943   0.393972  -0.003244  -0.002660
    18  C    0.003432  -0.003047   0.003546  -0.002817   0.394423   0.393650
    19  C    0.393598  -0.003048  -0.002810   0.003548  -0.002793   0.003445
    20  H    0.000000   0.000000  -0.000000  -0.000000   0.000000  -0.000000
    21  H   -0.000000   0.000000  -0.000000   0.000000   0.000000   0.000000
    22  H    0.000000  -0.000000   0.000000  -0.000000   0.000000  -0.000000
    23  H   -0.000003   0.000000  -0.000002   0.000000   0.000000   0.000000
    24  H    0.000001   0.000000   0.000001  -0.000002  -0.000000  -0.000003
    25  H    0.000020   0.000002  -0.000000   0.000004   0.000130  -0.000062
    26  H   -0.000073   0.000002   0.000004  -0.000000  -0.000024   0.000024
    27  H    0.002114  -0.000020   0.002258  -0.000165  -0.000062  -0.000011
    28  H   -0.000011  -0.000012  -0.000198   0.002271  -0.000108   0.002123
    29  H   -0.019566   0.002099  -0.000175  -0.000014   0.001879  -0.000047
    30  H   -0.018344  -0.000032  -0.000029  -0.000083  -0.000140  -0.000022
    31  H    0.434816  -0.000104   0.001815  -0.000051  -0.000047  -0.000085
    32  H   -0.000104   0.438947  -0.019285  -0.019348   0.002098  -0.000102
    33  H    0.001815  -0.019285   0.434452  -0.018924  -0.000016  -0.000051
    34  H   -0.000051  -0.019348  -0.018924   0.435714  -0.000177   0.001828
    35  H   -0.000047   0.002098  -0.000016  -0.000177   0.441718  -0.019658
    36  H   -0.000085  -0.000102  -0.000051   0.001828  -0.019658   0.437213
    37  H   -0.000022  -0.000032  -0.000083  -0.000028  -0.020308  -0.018483
    38  N    0.000000   0.000000   0.000000  -0.000000   0.000000  -0.000000
    39  H   -0.000000   0.000000  -0.000000  -0.000000   0.000000   0.000000
    40  C   -0.000000  -0.000000   0.000000   0.000000  -0.000000   0.000000
    41  H   -0.000000  -0.000000  -0.000000   0.000000   0.000000   0.000000
    42  H    0.000000  -0.000000   0.000000   0.000000   0.000000  -0.000000
    43  H   -0.000000   0.000000  -0.000000  -0.000000   0.000000   0.000000
              37         38         39         40         41         42
     1  C    0.000000  -0.000015   0.000045  -0.000000  -0.000000  -0.000000
     2  H   -0.000000  -0.000003   0.000014  -0.000000  -0.000000  -0.000000
     3  H    0.000000   0.000001  -0.000009  -0.000000   0.000000   0.000000
     4  H   -0.000000  -0.000000   0.000001   0.000000  -0.000000  -0.000000
     5  C    0.000000   0.000118  -0.000084   0.000008   0.000000   0.000000
     6  O    0.000000   0.000017  -0.000073   0.000000   0.000000  -0.000000
     7  N    0.000000  -0.007715   0.010468  -0.000019  -0.000036  -0.000002
     8  H   -0.000000   0.003193  -0.000378  -0.000108  -0.000004   0.000006
     9  C    0.000000  -0.116905  -0.001889   0.003553   0.000615  -0.000173
    10  C   -0.000000   0.317973  -0.023137  -0.025589  -0.001483   0.000567
    11  O   -0.000000  -0.090380   0.002119  -0.003365   0.008800   0.000350
    12  C    0.000000   0.003514   0.000334  -0.000071  -0.000011  -0.000002
    13  C    0.000025  -0.000127  -0.000010   0.000001   0.000002   0.000000
    14  C    0.000927   0.000001   0.000000  -0.000000  -0.000000   0.000000
    15  C   -0.003801  -0.000000  -0.000000   0.000000   0.000000   0.000000
    16  N   -0.029945   0.000000   0.000000  -0.000000  -0.000000   0.000000
    17  C    0.003333  -0.000000  -0.000000   0.000000   0.000000  -0.000000
    18  C    0.394793   0.000000  -0.000000  -0.000000  -0.000000   0.000000
    19  C   -0.002465   0.000000  -0.000000   0.000000   0.000000  -0.000000
    20  H   -0.000000  -0.000544  -0.000273  -0.000158  -0.000010   0.000018
    21  H   -0.000002  -0.000030  -0.000004   0.000001   0.000000  -0.000000
    22  H    0.000000  -0.000047  -0.000016  -0.000006  -0.000002   0.000000
    23  H   -0.000000   0.000144  -0.000007   0.000003  -0.000002   0.000001
    24  H    0.000004  -0.000003  -0.000001  -0.000000  -0.000000   0.000000
    25  H   -0.000545  -0.000000   0.000000   0.000000   0.000000  -0.000000
    26  H   -0.000037   0.000000  -0.000000   0.000000  -0.000000  -0.000000
    27  H   -0.000050  -0.000000   0.000000  -0.000000   0.000000  -0.000000
    28  H    0.000040  -0.000000   0.000000   0.000000   0.000000  -0.000000
    29  H   -0.000136  -0.000000  -0.000000   0.000000  -0.000000  -0.000000
    30  H    0.001648  -0.000000   0.000000   0.000000   0.000000  -0.000000
    31  H   -0.000022   0.000000  -0.000000  -0.000000  -0.000000   0.000000
    32  H   -0.000032   0.000000   0.000000  -0.000000  -0.000000  -0.000000
    33  H   -0.000083   0.000000  -0.000000   0.000000  -0.000000   0.000000
    34  H   -0.000028  -0.000000  -0.000000   0.000000   0.000000   0.000000
    35  H   -0.020308   0.000000   0.000000  -0.000000   0.000000   0.000000
    36  H   -0.018483  -0.000000   0.000000   0.000000   0.000000  -0.000000
    37  H    0.432202  -0.000000  -0.000000   0.000000   0.000000   0.000000
    38  N   -0.000000   7.303711   0.319792   0.180483  -0.035296  -0.044158
    39  H   -0.000000   0.319792   0.304761  -0.019757   0.002269  -0.001092
    40  C    0.000000   0.180483  -0.019757   4.958203   0.397387   0.401335
    41  H    0.000000  -0.035296   0.002269   0.397387   0.443850  -0.023225
    42  H    0.000000  -0.044158  -0.001092   0.401335  -0.023225   0.516837
    43  H    0.000000  -0.042992  -0.000821   0.400878  -0.022216  -0.034749
              43
     1  C    0.000000
     2  H    0.000000
     3  H   -0.000000
     4  H    0.000000
     5  C   -0.000001
     6  O    0.000000
     7  N    0.000007
     8  H   -0.000020
     9  C    0.000006
    10  C    0.000978
    11  O    0.000236
    12  C    0.000004
    13  C   -0.000000
    14  C    0.000000
    15  C   -0.000000
    16  N    0.000000
    17  C   -0.000000
    18  C    0.000000
    19  C   -0.000000
    20  H   -0.000002
    21  H   -0.000000
    22  H    0.000000
    23  H   -0.000000
    24  H   -0.000000
    25  H    0.000000
    26  H   -0.000000
    27  H    0.000000
    28  H    0.000000
    29  H   -0.000000
    30  H   -0.000000
    31  H   -0.000000
    32  H    0.000000
    33  H   -0.000000
    34  H   -0.000000
    35  H    0.000000
    36  H    0.000000
    37  H    0.000000
    38  N   -0.042992
    39  H   -0.000821
    40  C    0.400878
    41  H   -0.022216
    42  H   -0.034749
    43  H    0.516529
 Mulliken charges:
               1
     1  C   -0.582608
     2  H    0.178477
     3  H    0.227150
     4  H    0.217268
     5  C    0.759490
     6  O   -0.611453
     7  N   -0.847617
     8  H    0.394076
     9  C   -0.048351
    10  C    0.779072
    11  O   -0.651354
    12  C   -0.306540
    13  C   -0.349627
    14  C   -0.359273
    15  C   -0.150264
    16  N   -0.582962
    17  C   -0.336179
    18  C   -0.337078
    19  C   -0.337542
    20  H    0.252036
    21  H    0.187374
    22  H    0.177914
    23  H    0.232915
    24  H    0.177515
    25  H    0.189870
    26  H    0.194445
    27  H    0.233520
    28  H    0.228699
    29  H    0.235209
    30  H    0.242687
    31  H    0.239923
    32  H    0.236981
    33  H    0.240434
    34  H    0.239334
    35  H    0.235581
    36  H    0.237864
    37  H    0.242965
    38  N   -0.790730
    39  H    0.407747
    40  C   -0.292779
    41  H    0.229361
    42  H    0.184287
    43  H    0.182164
 Sum of Mulliken charges =   1.00000
 Mulliken charges with hydrogens summed into heavy atoms:
               1
     1  C    0.040287
     5  C    0.759490
     6  O   -0.611453
     7  N   -0.453541
     9  C    0.203685
    10  C    0.779072
    11  O   -0.651354
    12  C    0.058748
    13  C    0.060803
    14  C    0.025042
    15  C    0.311954
    16  N   -0.582962
    17  C    0.380571
    18  C    0.379332
    19  C    0.380276
    38  N   -0.382983
    40  C    0.303033
 DipInt: DoE/N= T F RetVal/Mat= T F Init=T NMatP=  1 IDeriv=0 Min/MaxMlt=  0  4
 Entering OneElI...
 OneElI was handed    66865130 working-precision words.
 Multipole integrals L=0 to 4 MinM= 0 MaxM= 0.
 Requested accuracy = 0.1000D-12
 PrtBox:  NBox=     1 Levels=  1 BoxLen=   35.86 SMaxX=       22.05
          Shift=           12.312991            7.112942            3.757057
 Box      1 Number                   0 centers from      1 to    120:
 ShPair: Thresh= 1.00D-13 NBox=     1 BxSize= 3.59D+01 RnKept= 2.13D+01
[...]
  936 Fit       0.120239
  937 Fit       0.139395
  938 Fit       0.119689
  939 Fit       0.119107
  940 Fit       0.118963
  941 Fit       0.121766
  942 Fit       0.122705
  943 Fit       0.136353
  944 Fit       0.119779
  945 Fit       0.118341
  946 Fit       0.121381
  947 Fit       0.119269
  948 Fit       0.118412
  949 Fit       0.119348
  950 Fit       0.122266
  951 Fit       0.129567
  952 Fit       0.074220
  953 Fit       0.065975
  954 Fit       0.075520
  955 Fit       0.080929
  956 Fit       0.082412
  957 Fit       0.061868
  958 Fit       0.070165
  959 Fit       0.095328
  960 Fit       0.091378
  961 Fit       0.102414
  962 Fit       0.090075
  963 Fit       0.088610
  964 Fit       0.089853
  965 Fit       0.076964
  966 Fit       0.096694
  967 Fit       0.070142
  968 Fit       0.089710
  969 Fit       0.091241
  970 Fit       0.083107
  971 Fit       0.088402
  972 Fit       0.099582
  973 Fit       0.095323
  974 Fit       0.091585
  975 Fit       0.069220
  976 Fit       0.093424
  977 Fit       0.107975
  978 Fit       0.086646
  979 Fit       0.080135
  980 Fit       0.080035
  981 Fit       0.096594
  982 Fit       0.109883
  983 Fit       0.084340
  984 Fit       0.117176
  985 Fit       0.092113
  986 Fit       0.070128
  987 Fit       0.082326
  988 Fit       0.088312
  989 Fit       0.101030
  990 Fit       0.112261
  991 Fit       0.098384
  992 Fit       0.081316
  993 Fit       0.091570
  994 Fit       0.129037
  995 Fit       0.112335
  996 Fit       0.119896
  997 Fit       0.107721
  998 Fit       0.110339
  999 Fit       0.102142
 1000 Fit       0.119822
 1001 Fit       0.104112
 1002 Fit       0.115845
 1003 Fit       0.105534
 1004 Fit       0.106097
 1005 Fit       0.128409
 1006 Fit       0.111811
 1007 Fit       0.097356
 1008 Fit       0.116713
 1009 Fit       0.107102
 1010 Fit       0.114225
 1011 Fit       0.103723
 1012 Fit       0.115913
 1013 Fit       0.134225
 1014 Fit       0.109726
 1015 Fit       0.121912
 1016 Fit       0.115859
 1017 Fit       0.129324
 1018 Fit       0.134946
 1019 Fit       0.120598
 1020 Fit       0.113651
 1021 Fit       0.117584
 1022 Fit       0.129730
 1023 Fit       0.130062
 1024 Fit       0.117566
 1025 Fit       0.120912
 1026 Fit       0.118521
 1027 Fit       0.117654
 1028 Fit       0.123439
 1029 Fit       0.118388
 1030 Fit       0.118371
 1031 Fit       0.122141
 1032 Fit       0.129232
 1033 Fit       0.138770
 1034 Fit       0.124970
 1035 Fit       0.126766
 1036 Fit       0.132307
 1037 Fit       0.117758
 1038 Fit       0.119212
 1039 Fit       0.117643
 1040 Fit       0.122735
 1041 Fit       0.121773
 1042 Fit       0.135813
 1043 Fit       0.133543
 1044 Fit       0.118198
 1045 Fit       0.118199
 1046 Fit       0.114045
 1047 Fit       0.114544
 1048 Fit       0.119042
 1049 Fit       0.124083
 1050 Fit       0.118501
 1051 Fit       0.117714
 1052 Fit       0.119832
 1053 Fit       0.125683
 1054 Fit       0.131727
 1055 Fit       0.131628
 1056 Fit       0.129227
 1057 Fit       0.126095
 1058 Fit       0.130011
 1059 Fit       0.119995
 1060 Fit       0.118036
 1061 Fit       0.120590
 1062 Fit       0.128431
 1063 Fit       0.117105
 1064 Fit       0.118824
 1065 Fit       0.126418
 1066 Fit       0.131469
 1067 Fit       0.129307
 1068 Fit       0.131178
 1069 Fit       0.122238
 1070 Fit       0.118779
 1071 Fit       0.120167
 1072 Fit       0.120494
 1073 Fit       0.115808
 1074 Fit       0.116134
 1075 Fit       0.120601
 1076 Fit       0.117764
 1077 Fit       0.120929
 1078 Fit       0.123510
 1079 Fit       0.130505
 1080 Fit       0.138729
 1081 Fit       0.125088
 1082 Fit       0.120867
 1083 Fit       0.117546
 1084 Fit       0.116052
 1085 Fit       0.118675
 1086 Fit       0.123931
 1087 Fit       0.117284
 1088 Fit       0.130527
 1089 Fit       0.124054
 1090 Fit       0.135170
 1091 Fit       0.122342
 1092 Fit       0.117959
 1093 Fit       0.120997
 1094 Fit       0.136380
 1095 Fit       0.123038
 1096 Fit       0.117705
 1097 Fit       0.118627
 1098 Fit       0.126843
 1099 Fit       0.122038
 1100 Fit       0.119392
 1101 Fit       0.117968
 1102 Fit       0.120965
 1103 Fit       0.130191
 1104 Fit       0.129762
 1105 Fit       0.119829
 1106 Fit       0.116159
 1107 Fit       0.117307
 1108 Fit       0.124319
 1109 Fit       0.122727
 1110 Fit       0.122980
 1111 Fit       0.136027
 1112 Fit       0.133017
 1113 Fit       0.132902
 1114 Fit       0.135599
 1115 Fit       0.123427
 1116 Fit       0.122758
 1117 Fit       0.118553
 1118 Fit       0.118804
 1119 Fit       0.124983
 1120 Fit       0.119774
 1121 Fit       0.121536
 1122 Fit       0.077166
 1123 Fit       0.077152
 1124 Fit       0.063449
 1125 Fit       0.091546
 1126 Fit       0.079654
 1127 Fit       0.073178
 1128 Fit       0.072615
 1129 Fit       0.076522
 1130 Fit       0.074741
 1131 Fit       0.069524
 1132 Fit       0.087736
 1133 Fit       0.093669
 1134 Fit       0.086365
 1135 Fit       0.089104
 1136 Fit       0.083879
 1137 Fit       0.085262
 1138 Fit       0.080114
 1139 Fit       0.079667
 1140 Fit       0.066088
 1141 Fit       0.061092
 1142 Fit       0.059639
 1143 Fit       0.061839
 1144 Fit       0.063166
 1145 Fit       0.061868
 1146 Fit       0.061575
 1147 Fit       0.068345
 1148 Fit       0.061286
 1149 Fit       0.078426
 1150 Fit       0.059418
 1151 Fit       0.061321
 1152 Fit       0.056824
 1153 Fit       0.061676
 1154 Fit       0.059058
 1155 Fit       0.054490
 1156 Fit       0.060721
 1157 Fit       0.058416
 1158 Fit       0.052719
 1159 Fit       0.060180
 1160 Fit       0.056416
 1161 Fit       0.063492
 1162 Fit       0.062273
 1163 Fit       0.062119
 1164 Fit       0.065073
 1165 Fit       0.062251
 1166 Fit       0.061268
 1167 Fit       0.061156
 1168 Fit       0.061253
 1169 Fit       0.071137
 1170 Fit       0.064612
 1171 Fit       0.062495
 1172 Fit       0.062649
 1173 Fit       0.064782
 1174 Fit       0.067828
 1175 Fit       0.068302
 1176 Fit       0.064724
 1177 Fit       0.066765
 1178 Fit       0.067075
 1179 Fit       0.063618
 1180 Fit       0.062911
 1181 Fit       0.071856
 1182 Fit       0.072639
 1183 Fit       0.066810
 1184 Fit       0.063440
 1185 Fit       0.062033
 1186 Fit       0.062260
 1187 Fit       0.081102
 1188 Fit       0.072924
 1189 Fit       0.066695
 1190 Fit       0.063351
 1191 Fit       0.062278
 1192 Fit       0.073652
 1193 Fit       0.067761
 1194 Fit       0.083592
 1195 Fit       0.075735
 1196 Fit       0.071680
 1197 Fit       0.084121
 1198 Fit       0.067445
 1199 Fit       0.067155
 1200 Fit       0.063240
 1201 Fit       0.064316
 1202 Fit       0.065912
 1203 Fit       0.061403
 1204 Fit       0.061351
 1205 Fit       0.062990
 1206 Fit       0.069994
 1207 Fit       0.078084
 1208 Fit       0.059245
 1209 Fit       0.078541
 1210 Fit       0.051560
 1211 Fit       0.077935
 1212 Fit       0.072721
 1213 Fit       0.080532
 1214 Fit       0.089824
 1215 Fit       0.085551
 1216 Fit       0.076536
 1217 Fit       0.071423
 1218 Fit       0.069489
 1219 Fit       0.075164
 1220 Fit       0.085418
 1221 Fit       0.067318
 1222 Fit       0.068046
 1223 Fit       0.072936
 1224 Fit       0.081596
 1225 Fit       0.073627
 1226 Fit       0.083242
 1227 Fit       0.063916
 1228 Fit       0.060310
 1229 Fit       0.061326
 1230 Fit       0.062066
 1231 Fit       0.066384
 1232 Fit       0.056773
 1233 Fit       0.057853
 1234 Fit       0.059485
 1235 Fit       0.060511
 1236 Fit       0.064888
 1237 Fit       0.071281
 1238 Fit       0.050466
 1239 Fit       0.054808
 1240 Fit       0.057525
 1241 Fit       0.057569
 1242 Fit       0.060170
 1243 Fit       0.052901
 1244 Fit       0.049771
 1245 Fit       0.079306
 1246 Fit       0.072162
 1247 Fit       0.069032
 1248 Fit       0.078642
 1249 Fit       0.071637
 1250 Fit       0.067065
 1251 Fit       0.064960
 1252 Fit       0.073778
 1253 Fit       0.068068
 1254 Fit       0.064362
 1255 Fit       0.062324
 1256 Fit       0.062193
 1257 Fit       0.063544
 1258 Fit       0.061670
 1259 Fit       0.060050
 1260 Fit       0.059340
 1261 Fit       0.053829
 1262 Fit       0.075038
 1263 Fit       0.057758
 1264 Fit       0.064736
 1265 Fit       0.071060
 1266 Fit       0.067206
 1267 Fit       0.057734
 1268 Fit       0.059977
 1269 Fit       0.049301
 1270 Fit       0.043635
 1271 Fit       0.043142
 1272 Fit       0.061701
 1273 Fit       0.049163
 1274 Fit       0.039955
 1275 Fit       0.035321
 1276 Fit       0.035786
 1277 Fit       0.041731
 1278 Fit       0.044441
 1279 Fit       0.050579
 1280 Fit       0.056536
 1281 Fit       0.062095
 1282 Fit       0.054132
 1283 Fit       0.044424
 1284 Fit       0.036336
 1285 Fit       0.032221
 1286 Fit       0.033043
 1287 Fit       0.038051
 1288 Fit       0.038110
 1289 Fit       0.044591
 1290 Fit       0.047935
 1291 Fit       0.043546
 1292 Fit       0.035650
 1293 Fit       0.033317
 1294 Fit       0.038114
 1295 Fit       0.091989
 1296 Fit       0.092132
 1297 Fit       0.091534
 1298 Fit       0.090089
 1299 Fit       0.091912
 1300 Fit       0.094472
 1301 Fit       0.093392
 1302 Fit       0.093004
 1303 Fit       0.089224
 1304 Fit       0.087002
 1305 Fit       0.090266
 1306 Fit       0.078125
 1307 Fit       0.082374
 1308 Fit       0.066841
 1309 Fit       0.069035
 1310 Fit       0.078823
 1311 Fit       0.074218
 1312 Fit       0.062855
 1313 Fit       0.054317
 1314 Fit       0.054313
 1315 Fit       0.066078
 1316 Fit       0.047813
 1317 Fit       0.050558
 1318 Fit       0.061189
 1319 Fit       0.076352
 1320 Fit       0.046672
 1321 Fit       0.049649
 1322 Fit       0.061691
 1323 Fit       0.080927
 1324 Fit       0.047216
 1325 Fit       0.053495
 1326 Fit       0.068653
 1327 Fit       0.049199
 1328 Fit       0.052307
 1329 Fit       0.066027
 1330 Fit       0.052758
 1331 Fit       0.055579
 1332 Fit       0.068455
 1333 Fit       0.061069
 1334 Fit       0.101723
 1335 Fit       0.090896
 1336 Fit       0.107314
 1337 Fit       0.128088
 1338 Fit       0.118625
 1339 Fit       0.113155
 1340 Fit       0.129362
 1341 Fit       0.110294
 1342 Fit       0.111306
 1343 Fit       0.113902
 1344 Fit       0.117930
 1345 Fit       0.123068
 1346 Fit       0.110179
 1347 Fit       0.110254
 1348 Fit       0.113181
 1349 Fit       0.112347
 1350 Fit       0.123326
 1351 Fit       0.118172
 1352 Fit       0.113616
 1353 Fit       0.112891
 1354 Fit       0.110732
 1355 Fit       0.111540
 1356 Fit       0.113208
 1357 Fit       0.111189
 1358 Fit       0.111835
 1359 Fit       0.114489
 1360 Fit       0.118723
 1361 Fit       0.129632
 1362 Fit       0.111732
 1363 Fit       0.110483
 1364 Fit       0.113024
 1365 Fit       0.116621
 1366 Fit       0.110752
 1367 Fit       0.109856
 1368 Fit       0.110832
 1369 Fit       0.120984
 1370 Fit       0.112290
 1371 Fit       0.117160
 1372 Fit       0.125401
 1373 Fit       0.068132
 1374 Fit       0.063541
 1375 Fit       0.071923
 1376 Fit       0.077151
 1377 Fit       0.078304
 1378 Fit       0.061851
 1379 Fit       0.067718
 1380 Fit       0.093535
 1381 Fit       0.089987
 1382 Fit       0.099719
 1383 Fit       0.088966
 1384 Fit       0.087763
 1385 Fit       0.086406
 1386 Fit       0.080184
 1387 Fit       0.078964
 1388 Fit       0.092448
 1389 Fit       0.087257
 1390 Fit       0.087722
 1391 Fit       0.081682
 1392 Fit       0.086486
 1393 Fit       0.095766
 1394 Fit       0.092575
 1395 Fit       0.089003
 1396 Fit       0.085925
 1397 Fit       0.073343
 1398 Fit       0.091783
 1399 Fit       0.078233
 1400 Fit       0.081102
 1401 Fit       0.080626
 1402 Fit       0.094353
 1403 Fit       0.096009
 1404 Fit       0.071568
 1405 Fit       0.088163
 1406 Fit       0.069014
 1407 Fit       0.079350
 1408 Fit       0.085503
 1409 Fit       0.096899
 1410 Fit       0.105679
 1411 Fit       0.093994
 1412 Fit       0.079175
 1413 Fit       0.088287
 1414 Fit       0.109414
 1415 Fit       0.115238
 1416 Fit       0.104545
 1417 Fit       0.103868
 1418 Fit       0.116991
 1419 Fit       0.102270
 1420 Fit       0.116340
 1421 Fit       0.100369
 1422 Fit       0.110951
 1423 Fit       0.101927
 1424 Fit       0.102589
 1425 Fit       0.107816
 1426 Fit       0.095156
 1427 Fit       0.111130
 1428 Fit       0.094878
 1429 Fit       0.111260
 1430 Fit       0.107741
 1431 Fit       0.124353
 1432 Fit       0.105518
 1433 Fit       0.119196
 1434 Fit       0.104785
 1435 Fit       0.115298
 1436 Fit       0.111335
 1437 Fit       0.122853
 1438 Fit       0.123351
 1439 Fit       0.124230
 1440 Fit       0.112595
 1441 Fit       0.107745
 1442 Fit       0.111498
 1443 Fit       0.121784
 1444 Fit       0.121509
 1445 Fit       0.111058
 1446 Fit       0.114373
 1447 Fit       0.112234
 1448 Fit       0.111350
 1449 Fit       0.116550
 1450 Fit       0.111088
 1451 Fit       0.110693
 1452 Fit       0.113719
 1453 Fit       0.119665
 1454 Fit       0.115171
 1455 Fit       0.114536
 1456 Fit       0.117115
 1457 Fit       0.122620
 1458 Fit       0.124853
 1459 Fit       0.124895
 1460 Fit       0.111265
 1461 Fit       0.112069
 1462 Fit       0.110857
 1463 Fit       0.115240
 1464 Fit       0.114246
 1465 Fit       0.114143
 1466 Fit       0.124303
 1467 Fit       0.122634
 1468 Fit       0.119930
 1469 Fit       0.111924
 1470 Fit       0.107710
 1471 Fit       0.108160
 1472 Fit       0.112601
 1473 Fit       0.113704
 1474 Fit       0.108871
 1475 Fit       0.108143
 1476 Fit       0.109596
 1477 Fit       0.113704
 1478 Fit       0.116203
 1479 Fit       0.114656
 1480 Fit       0.116245
 1481 Fit       0.121071
 1482 Fit       0.126760
 1483 Fit       0.123210
 1484 Fit       0.126935
 1485 Fit       0.117740
 1486 Fit       0.113909
 1487 Fit       0.114452
 1488 Fit       0.119358
 1489 Fit       0.110536
 1490 Fit       0.110591
 1491 Fit       0.114395
 1492 Fit       0.122945
 1493 Fit       0.111500
 1494 Fit       0.112929
 1495 Fit       0.127767
 1496 Fit       0.120870
 1497 Fit       0.116097
 1498 Fit       0.115765
 1499 Fit       0.121217
 1500 Fit       0.113463
 1501 Fit       0.110156
 1502 Fit       0.110409
 1503 Fit       0.121858
 1504 Fit       0.112894
 1505 Fit       0.109009
 1506 Fit       0.109648
 1507 Fit       0.114534
 1508 Fit       0.112086
 1509 Fit       0.124031
 1510 Fit       0.124965
 1511 Fit       0.112375
 1512 Fit       0.114619
 1513 Fit       0.119826
 1514 Fit       0.125829
 1515 Fit       0.116575
 1516 Fit       0.113419
 1517 Fit       0.110475
 1518 Fit       0.109228
 1519 Fit       0.111357
 1520 Fit       0.115506
 1521 Fit       0.110522
 1522 Fit       0.124693
 1523 Fit       0.119144
 1524 Fit       0.128002
 1525 Fit       0.116367
 1526 Fit       0.112496
 1527 Fit       0.120448
 1528 Fit       0.112755
 1529 Fit       0.110352
 1530 Fit       0.123134
 1531 Fit       0.114500
 1532 Fit       0.112040
 1533 Fit       0.122662
 1534 Fit       0.118317
 1535 Fit       0.113780
 1536 Fit       0.110096
 1537 Fit       0.109858
 1538 Fit       0.113106
 1539 Fit       0.121412
 1540 Fit       0.123036
 1541 Fit       0.113691
 1542 Fit       0.110140
 1543 Fit       0.111160
 1544 Fit       0.117653
 1545 Fit       0.117105
 1546 Fit       0.117170
 1547 Fit       0.128851
 1548 Fit       0.126478
 1549 Fit       0.126308
 1550 Fit       0.117826
 1551 Fit       0.117110
 1552 Fit       0.112379
 1553 Fit       0.112722
 1554 Fit       0.118122
 1555 Fit       0.111689
 1556 Fit       0.114554
 1557 Fit       0.117891
 1558 Fit       0.076395
 1559 Fit       0.076170
 1560 Fit       0.064229
 1561 Fit       0.085973
 1562 Fit       0.073732
 1563 Fit       0.069713
 1564 Fit       0.070785
 1565 Fit       0.072914
 1566 Fit       0.070810
 1567 Fit       0.068005
 1568 Fit       0.082135
 1569 Fit       0.085699
 1570 Fit       0.080102
 1571 Fit       0.082235
 1572 Fit       0.077758
 1573 Fit       0.078618
 1574 Fit       0.075030
 1575 Fit       0.074413
 1576 Fit       0.065016
 1577 Fit       0.060105
 1578 Fit       0.060408
 1579 Fit       0.059283
 1580 Fit       0.059498
 1581 Fit       0.059191
 1582 Fit       0.058775
 1583 Fit       0.065782
 1584 Fit       0.061987
 1585 Fit       0.060090
 1586 Fit       0.059123
 1587 Fit       0.058752
 1588 Fit       0.073598
 1589 Fit       0.058672
 1590 Fit       0.072910
 1591 Fit       0.060739
 1592 Fit       0.056125
 1593 Fit       0.057196
 1594 Fit       0.053711
 1595 Fit       0.058792
 1596 Fit       0.057081
 1597 Fit       0.054261
 1598 Fit       0.057568
 1599 Fit       0.055089
 1600 Fit       0.056355
 1601 Fit       0.063626
 1602 Fit       0.060442
 1603 Fit       0.059135
 1604 Fit       0.058909
 1605 Fit       0.059298
 1606 Fit       0.062328
 1607 Fit       0.059742
 1608 Fit       0.058881
 1609 Fit       0.059108
 1610 Fit       0.059959
 1611 Fit       0.061372
 1612 Fit       0.067272
 1613 Fit       0.062060
 1614 Fit       0.060215
 1615 Fit       0.060805
 1616 Fit       0.063288
 1617 Fit       0.065829
 1618 Fit       0.065414
 1619 Fit       0.062502
 1620 Fit       0.065122
 1621 Fit       0.064824
 1622 Fit       0.061705
 1623 Fit       0.061560
 1624 Fit       0.070375
 1625 Fit       0.064293
 1626 Fit       0.061069
 1627 Fit       0.059801
 1628 Fit       0.060050
 1629 Fit       0.078103
 1630 Fit       0.070113
 1631 Fit       0.064014
 1632 Fit       0.060834
 1633 Fit       0.059513
 1634 Fit       0.059706
 1635 Fit       0.080056
 1636 Fit       0.069956
 1637 Fit       0.064463
 1638 Fit       0.061223
 1639 Fit       0.060341
 1640 Fit       0.071462
 -----------------------------------------------------------------
 Leave Link  602 at Mon Jun  1 09:19:54 2026, MaxMem=    67108864 cpu:               1.3 elap:               0.1
 (Enter /software/local/apps/gaussian-16.0/g16/l9999.exe)

 Test job not archived.
 1\1\GINC-BP1-COMPUTE077\SP\RHF\6-31G(d)\C12H26N3O2(1+)\XV24323\01-Jun-
 2026\0\\#p hf/6-31g(d) SCF=Tight Pop=MK IOp(6/33=2)\\KM3\\1,1\C,0,4.40
 052,-2.83812,0.541398\H,0,4.89222,-2.299541,1.35699\H,0,5.151609,-3.12
 2608,-0.201299\H,0,3.968545,-3.764007,0.93439\C,0,3.311207,-2.039524,-
 0.150774\O,0,2.706163,-2.45536,-1.128718\N,0,3.055716,-0.788134,0.3782
 17\H,0,3.413645,-0.574111,1.300661\C,0,1.937009,0.003971,-0.122948\C,0
 ,2.217558,1.515586,0.020446\O,0,1.315171,2.311118,0.276293\C,0,0.58808
 5,-0.394093,0.510404\C,0,-0.615542,0.056919,-0.328587\C,0,-1.956709,-0
 .310828,0.333708\C,0,-3.101886,0.184973,-0.544231\N,0,-4.52833,-0.0607
 48,-0.02288\C,0,-5.49676,0.494357,-1.0373\C,0,-4.792183,-1.5346,0.1449
 3\C,0,-4.747729,0.642527,1.291789\H,0,1.88949,-0.227532,-1.194428\H,0,
 0.579286,-1.486131,0.602717\H,0,0.519045,0.032507,1.518722\H,0,-0.5558
 53,1.140376,-0.465861\H,0,-0.5585,-0.411908,-1.320939\H,0,-2.009434,-1
 .397412,0.471846\H,0,-1.997097,0.153369,1.325999\H,0,-3.031275,1.26664
 9,-0.690148\H,0,-3.069704,-0.292826,-1.527775\H,0,-5.789725,0.51195,1.
 58821\H,0,-4.092101,0.211145,2.04656\H,0,-4.525468,1.703334,1.165626\H
 ,0,-6.515754,0.331165,-0.682791\H,0,-5.309866,1.56246,-1.157012\H,0,-5
 .345999,-0.018723,-1.988149\H,0,-5.833801,-1.672217,0.439549\H,0,-4.60
 3867,-2.037046,-0.805219\H,0,-4.134207,-1.933902,0.915252\N,0,3.508535
 ,1.878398,-0.182245\H,0,4.169669,1.14705,-0.407141\C,0,3.954724,3.2633
 42,-0.176299\H,0,3.115241,3.881376,0.143279\H,0,4.272764,3.579587,-1.1
 76246\H,0,4.789261,3.397265,0.519744\\Version=ES64L-G16RevC.01\State=1
 -A\HF=-782.4522547\RMSD=4.714e-09\Dipole=-5.6579017,-0.2381265,0.85065
 55\Quadrupole=62.6782743,-32.6239938,-30.0542805,3.2797943,5.8931967,-
 6.8383065\PG=C01 [X(C12H26N3O2)]\\@


 A FOOL CAN ASK MORE QUESTIONS THAN
 A WISE MAN CAN ANSWER.
 Job cpu time:       0 days  0 hours  3 minutes 51.0 seconds.
 Elapsed time:       0 days  0 hours  0 minutes 15.0 seconds.
 File lengths (MBytes):  RWF=    168 Int=      0 D2E=      0 Chk=     16 Scr=     16
 Normal termination of Gaussian 16 at Mon Jun  1 09:19:54 2026.
