 Entering Gaussian System, Link 0=g16
 Initial command:
 /software/local/apps/gaussian-16.0/g16/l1.exe "KM3/middle/Gau-3347839.inp" -scrdir="KM3/middle/"
 Entering Link 1 = /software/local/apps/gaussian-16.0/g16/l1.exe PID=   3347840.
  
 Copyright (c) 1988-2019, Gaussian, Inc.  All Rights Reserved.
  
 This is part of the Gaussian(R) 16 program.  It is based on
 the Gaussian(R) 09 system (copyright 2009, Gaussian, Inc.),
 the Gaussian(R) 03 system (copyright 2003, Gaussian, Inc.),
 the Gaussian(R) 98 system (copyright 1998, Gaussian, Inc.),
 the Gaussian(R) 94 system (copyright 1995, Gaussian, Inc.),
 the Gaussian 92(TM) system (copyright 1992, Gaussian, Inc.),
 the Gaussian 90(TM) system (copyright 1990, Gaussian, Inc.),
 the Gaussian 88(TM) system (copyright 1988, Gaussian, Inc.),
 the Gaussian 86(TM) system (copyright 1986, Carnegie Mellon
 University), and the Gaussian 82(TM) system (copyright 1983,
 Carnegie Mellon University). Gaussian is a federally registered
 trademark of Gaussian, Inc.
  
 This software contains proprietary and confidential information,
 including trade secrets, belonging to Gaussian, Inc.
  
 This software is provided under written license and may be
 used, copied, transmitted, or stored only in accord with that
 written license.
  
 The following legend is applicable only to US Government
 contracts under FAR:
  
                    RESTRICTED RIGHTS LEGEND
  
 Use, reproduction and disclosure by the US Government is
 subject to restrictions as set forth in subparagraphs (a)
 and (c) of the Commercial Computer Software - Restricted
 Rights clause in FAR 52.227-19.
  
 Gaussian, Inc.
 340 Quinnipiac St., Bldg. 40, Wallingford CT 06492
  
  
 ---------------------------------------------------------------
 Warning -- This program may not be used in any manner that
 competes with the business of Gaussian, Inc. or will provide
 assistance to any competitor of Gaussian, Inc.  The licensee
 of this program is prohibited from giving any competitor of
 Gaussian, Inc. access to this program.  By using this program,
 the user acknowledges that Gaussian, Inc. is engaged in the
 business of creating and licensing software in the field of
 computational chemistry and represents and warrants to the
 licensee that it is not a competitor of Gaussian, Inc. and that
 it will not use this program in any manner prohibited above.
 ---------------------------------------------------------------
  

 Cite this work as:
 Gaussian 16, Revision C.01,
 M. J. Frisch, G. W. Trucks, H. B. Schlegel, G. E. Scuseria, 
 M. A. Robb, J. R. Cheeseman, G. Scalmani, V. Barone, 
 G. A. Petersson, H. Nakatsuji, X. Li, M. Caricato, A. V. Marenich, 
 J. Bloino, B. G. Janesko, R. Gomperts, B. Mennucci, H. P. Hratchian, 
 J. V. Ortiz, A. F. Izmaylov, J. L. Sonnenberg, D. Williams-Young, 
 F. Ding, F. Lipparini, F. Egidi, J. Goings, B. Peng, A. Petrone, 
 T. Henderson, D. Ranasinghe, V. G. Zakrzewski, J. Gao, N. Rega, 
 G. Zheng, W. Liang, M. Hada, M. Ehara, K. Toyota, R. Fukuda, 
 J. Hasegawa, M. Ishida, T. Nakajima, Y. Honda, O. Kitao, H. Nakai, 
 T. Vreven, K. Throssell, J. A. Montgomery, Jr., J. E. Peralta, 
 F. Ogliaro, M. J. Bearpark, J. J. Heyd, E. N. Brothers, K. N. Kudin, 
 V. N. Staroverov, T. A. Keith, R. Kobayashi, J. Normand, 
 K. Raghavachari, A. P. Rendell, J. C. Burant, S. S. Iyengar, 
 J. Tomasi, M. Cossi, J. M. Millam, M. Klene, C. Adamo, R. Cammi, 
 J. W. Ochterski, R. L. Martin, K. Morokuma, O. Farkas, 
 J. B. Foresman, and D. J. Fox, Gaussian, Inc., Wallingford CT, 2019.
 
 ******************************************
 Gaussian 16:  ES64L-G16RevC.01  3-Jul-2019
                 1-Jun-2026 
 ******************************************
 %nprocshared=16
 Will use up to   16 processors via shared memory.
 %mem=512MB
 -------------------
 #P b3lyp/6-31g* opt
 -------------------
 1/18=20,19=15,26=3,38=1/1,3;
 2/9=110,12=2,17=6,18=5,40=1/2;
 3/5=1,6=6,7=1,11=2,25=1,30=1,71=1,74=-5/1,2,3;
 4//1;
 5/5=2,38=5/2;
 6/7=2,8=2,9=2,10=2,28=1/1;
 7//1,2,3,16;
 1/18=20,19=15,26=3/3(2);
 2/9=110/2;
 99//99;
 2/9=110/2;
 3/5=1,6=6,7=1,11=2,25=1,30=1,71=1,74=-5/1,2,3;
 4/5=5,16=3,69=1/1;
 5/5=2,38=5/2;
 7//1,2,3,16;
 1/18=20,19=15,26=3/3(-5);
 2/9=110/2;
 6/7=2,8=2,9=2,10=2,19=2,28=1/1;
 99/9=1/99;
 Leave Link    1 at Mon Jun  1 08:50:16 2026, MaxMem=    67108864 cpu:              11.7 elap:               0.8
 (Enter /software/local/apps/gaussian-16.0/g16/l101.exe)
 --------------------------------------
 KM3 b3lyp/6-31g* geometry optimisation
 --------------------------------------
 Symbolic Z-matrix:
 Charge =  1 Multiplicity = 1
 C                     20.042    3.684     7.511 
 H                     21.002    3.315     7.871 
 H                     19.479    2.863     7.069 
 H                     19.479    4.104     8.345 
 C                     20.274    4.762     6.462 
 O                     19.459    5.673     6.332 
 N                     21.362    4.712     5.69 
 H                     22.007    3.947     5.829 
 C                     21.611    5.728     4.679 
 C                     22.926    5.413     3.952 
 O                     23.598    4.426     4.253 
 C                     21.608    7.103     5.352 
 C                     21.681    8.266     4.357 
 C                     21.731    9.655     5.005 
 C                     21.805    10.833    4.024 
 N                     21.851    12.142    4.698 
 C                     21.922    13.247    3.656 
 C                     20.6      12.323    5.543 
 C                     23.079    12.21     5.592 
 H                     20.758    5.785     4.002 
 H                     20.692    7.224     5.93 
 H                     22.469    7.185     6.015 
 H                     22.579    8.168     3.748 
 H                     20.802    8.249     3.712 
 H                     20.836    9.808     5.607 
 H                     22.613    9.727     5.642 
 H                     22.703    10.743    3.414 
 H                     20.926    10.824    3.379 
 H                     23.113    13.178    6.09 
 H                     23.029    11.418    6.339 
 H                     23.976    12.081    4.987 
 H                     21.956    14.215    4.155 
 H                     22.819    13.118    3.051 
 H                     21.041    13.2      3.016 
 H                     20.635    13.291    6.041 
 H                     19.719    12.275    4.903 
 H                     20.549    11.531    6.291 
 N                     23.348    6.222     2.978 
 H                     22.791    7.03      2.736 
 C                     24.586    5.946     2.277 
 H                     25.43     6.199     2.918 
 H                     24.629    6.544     1.366 
 H                     24.629    4.888     2.018 
 
 ITRead=  0  0  0  0  0  0  0  0  0  0  0  0  0  0  0  0  0  0  0  0
 ITRead=  0  0  0  0  0  0  0  0  0  0  0  0  0  0  0  0  0  0  0  0
 ITRead=  0  0  0
 MicOpt= -1 -1 -1 -1 -1 -1 -1 -1 -1 -1 -1 -1 -1 -1 -1 -1 -1 -1 -1 -1
 MicOpt= -1 -1 -1 -1 -1 -1 -1 -1 -1 -1 -1 -1 -1 -1 -1 -1 -1 -1 -1 -1
 MicOpt= -1 -1 -1
 NAtoms=     43 NQM=       43 NQMF=       0 NMMI=      0 NMMIF=      0
                NMic=       0 NMicF=      0.
                    Isotopes and Nuclear Properties:
 (Nuclear quadrupole moments (NQMom) in fm**2, nuclear magnetic moments (NMagM)
  in nuclear magnetons)

  Atom         1           2           3           4           5           6           7           8           9          10
 IAtWgt=          12           1           1           1          12          16          14           1          12          12
 AtmWgt=  12.0000000   1.0078250   1.0078250   1.0078250  12.0000000  15.9949146  14.0030740   1.0078250  12.0000000  12.0000000
 NucSpn=           0           1           1           1           0           0           2           1           0           0
 AtZEff=  -0.0000000  -0.0000000  -0.0000000  -0.0000000  -0.0000000  -0.0000000  -0.0000000  -0.0000000  -0.0000000  -0.0000000
 NQMom=    0.0000000   0.0000000   0.0000000   0.0000000   0.0000000   0.0000000   2.0440000   0.0000000   0.0000000   0.0000000
 NMagM=    0.0000000   2.7928460   2.7928460   2.7928460   0.0000000   0.0000000   0.4037610   2.7928460   0.0000000   0.0000000
 AtZNuc=   6.0000000   1.0000000   1.0000000   1.0000000   6.0000000   8.0000000   7.0000000   1.0000000   6.0000000   6.0000000

  Atom        11          12          13          14          15          16          17          18          19          20
 IAtWgt=          16          12          12          12          12          14          12          12          12           1
 AtmWgt=  15.9949146  12.0000000  12.0000000  12.0000000  12.0000000  14.0030740  12.0000000  12.0000000  12.0000000   1.0078250
 NucSpn=           0           0           0           0           0           2           0           0           0           1
 AtZEff=  -0.0000000  -0.0000000  -0.0000000  -0.0000000  -0.0000000  -0.0000000  -0.0000000  -0.0000000  -0.0000000  -0.0000000
 NQMom=    0.0000000   0.0000000   0.0000000   0.0000000   0.0000000   2.0440000   0.0000000   0.0000000   0.0000000   0.0000000
 NMagM=    0.0000000   0.0000000   0.0000000   0.0000000   0.0000000   0.4037610   0.0000000   0.0000000   0.0000000   2.7928460
 AtZNuc=   8.0000000   6.0000000   6.0000000   6.0000000   6.0000000   7.0000000   6.0000000   6.0000000   6.0000000   1.0000000

  Atom        21          22          23          24          25          26          27          28          29          30
 IAtWgt=           1           1           1           1           1           1           1           1           1           1
 AtmWgt=   1.0078250   1.0078250   1.0078250   1.0078250   1.0078250   1.0078250   1.0078250   1.0078250   1.0078250   1.0078250
 NucSpn=           1           1           1           1           1           1           1           1           1           1
 AtZEff=  -0.0000000  -0.0000000  -0.0000000  -0.0000000  -0.0000000  -0.0000000  -0.0000000  -0.0000000  -0.0000000  -0.0000000
 NQMom=    0.0000000   0.0000000   0.0000000   0.0000000   0.0000000   0.0000000   0.0000000   0.0000000   0.0000000   0.0000000
 NMagM=    2.7928460   2.7928460   2.7928460   2.7928460   2.7928460   2.7928460   2.7928460   2.7928460   2.7928460   2.7928460
 AtZNuc=   1.0000000   1.0000000   1.0000000   1.0000000   1.0000000   1.0000000   1.0000000   1.0000000   1.0000000   1.0000000

  Atom        31          32          33          34          35          36          37          38          39          40
 IAtWgt=           1           1           1           1           1           1           1          14           1          12
 AtmWgt=   1.0078250   1.0078250   1.0078250   1.0078250   1.0078250   1.0078250   1.0078250  14.0030740   1.0078250  12.0000000
 NucSpn=           1           1           1           1           1           1           1           2           1           0
 AtZEff=  -0.0000000  -0.0000000  -0.0000000  -0.0000000  -0.0000000  -0.0000000  -0.0000000  -0.0000000  -0.0000000  -0.0000000
 NQMom=    0.0000000   0.0000000   0.0000000   0.0000000   0.0000000   0.0000000   0.0000000   2.0440000   0.0000000   0.0000000
 NMagM=    2.7928460   2.7928460   2.7928460   2.7928460   2.7928460   2.7928460   2.7928460   0.4037610   2.7928460   0.0000000
 AtZNuc=   1.0000000   1.0000000   1.0000000   1.0000000   1.0000000   1.0000000   1.0000000   7.0000000   1.0000000   6.0000000

  Atom        41          42          43
 IAtWgt=           1           1           1
 AtmWgt=   1.0078250   1.0078250   1.0078250
 NucSpn=           1           1           1
 AtZEff=  -0.0000000  -0.0000000  -0.0000000
 NQMom=    0.0000000   0.0000000   0.0000000
 NMagM=    2.7928460   2.7928460   2.7928460
 AtZNuc=   1.0000000   1.0000000   1.0000000
 Leave Link  101 at Mon Jun  1 08:50:16 2026, MaxMem=    67108864 cpu:               2.2 elap:               0.2
 (Enter /software/local/apps/gaussian-16.0/g16/l103.exe)

 GradGradGradGradGradGradGradGradGradGradGradGradGradGradGradGradGradGrad
 Berny optimization.
 Initialization pass.
                           ----------------------------
                           !    Initial Parameters    !
                           ! (Angstroms and Degrees)  !
 --------------------------                            --------------------------
 ! Name  Definition              Value          Derivative Info.                !
 --------------------------------------------------------------------------------
 ! R1    R(1,2)                  1.0897         estimate D2E/DX2                !
 ! R2    R(1,3)                  1.0892         estimate D2E/DX2                !
 ! R3    R(1,4)                  1.0904         estimate D2E/DX2                !
 ! R4    R(1,5)                  1.5219         estimate D2E/DX2                !
 ! R5    R(5,6)                  1.2292         estimate D2E/DX2                !
 ! R6    R(5,7)                  1.335          estimate D2E/DX2                !
 ! R7    R(7,8)                  1.0102         estimate D2E/DX2                !
 ! R8    R(7,9)                  1.4548         estimate D2E/DX2                !
 ! R9    R(9,10)                 1.5352         estimate D2E/DX2                !
 ! R10   R(9,12)                 1.5309         estimate D2E/DX2                !
 ! R11   R(9,20)                 1.0905         estimate D2E/DX2                !
 ! R12   R(10,11)                1.2314         estimate D2E/DX2                !
 ! R13   R(10,38)                1.3346         estimate D2E/DX2                !
 ! R14   R(12,13)                1.5323         estimate D2E/DX2                !
 ! R15   R(12,21)                1.0899         estimate D2E/DX2                !
 ! R16   R(12,22)                1.0898         estimate D2E/DX2                !
 ! R17   R(13,14)                1.5335         estimate D2E/DX2                !
 ! R18   R(13,23)                1.0894         estimate D2E/DX2                !
 ! R19   R(13,24)                1.0904         estimate D2E/DX2                !
 ! R20   R(14,15)                1.5348         estimate D2E/DX2                !
 ! R21   R(14,25)                1.0894         estimate D2E/DX2                !
 ! R22   R(14,26)                1.0904         estimate D2E/DX2                !
 ! R23   R(15,16)                1.473          estimate D2E/DX2                !
 ! R24   R(15,27)                1.0893         estimate D2E/DX2                !
 ! R25   R(15,28)                1.0903         estimate D2E/DX2                !
 ! R26   R(16,17)                1.5205         estimate D2E/DX2                !
 ! R27   R(16,18)                1.5205         estimate D2E/DX2                !
 ! R28   R(16,19)                1.5205         estimate D2E/DX2                !
 ! R29   R(17,32)                1.0896         estimate D2E/DX2                !
 ! R30   R(17,33)                1.0896         estimate D2E/DX2                !
 ! R31   R(17,34)                1.0899         estimate D2E/DX2                !
 ! R32   R(18,35)                1.0892         estimate D2E/DX2                !
 ! R33   R(18,36)                1.09           estimate D2E/DX2                !
 ! R34   R(18,37)                1.0906         estimate D2E/DX2                !
 ! R35   R(19,29)                1.0891         estimate D2E/DX2                !
 ! R36   R(19,30)                1.0898         estimate D2E/DX2                !
 ! R37   R(19,31)                1.0896         estimate D2E/DX2                !
 ! R38   R(38,39)                1.0108         estimate D2E/DX2                !
 ! R39   R(38,40)                1.4492         estimate D2E/DX2                !
 ! R40   R(40,41)                1.0896         estimate D2E/DX2                !
 ! R41   R(40,42)                1.0906         estimate D2E/DX2                !
 ! R42   R(40,43)                1.0901         estimate D2E/DX2                !
 ! A1    A(2,1,3)              109.5239         estimate D2E/DX2                !
 ! A2    A(2,1,4)              109.4289         estimate D2E/DX2                !
 ! A3    A(2,1,5)              109.4676         estimate D2E/DX2                !
 ! A4    A(3,1,4)              109.5017         estimate D2E/DX2                !
 ! A5    A(3,1,5)              109.4502         estimate D2E/DX2                !
 ! A6    A(4,1,5)              109.455          estimate D2E/DX2                !
 ! A7    A(1,5,6)              119.7855         estimate D2E/DX2                !
 ! A8    A(1,5,7)              119.7543         estimate D2E/DX2                !
 ! A9    A(6,5,7)              120.4602         estimate D2E/DX2                !
 ! A10   A(5,7,8)              117.978          estimate D2E/DX2                !
 ! A11   A(5,7,9)              121.0115         estimate D2E/DX2                !
 ! A12   A(8,7,9)              121.0105         estimate D2E/DX2                !
 ! A13   A(7,9,10)             109.4144         estimate D2E/DX2                !
 ! A14   A(7,9,12)             108.7495         estimate D2E/DX2                !
 ! A15   A(7,9,20)             109.5153         estimate D2E/DX2                !
 ! A16   A(10,9,12)            113.2126         estimate D2E/DX2                !
 ! A17   A(10,9,20)            112.7517         estimate D2E/DX2                !
 ! A18   A(12,9,20)            102.9701         estimate D2E/DX2                !
 ! A19   A(9,10,11)            121.0734         estimate D2E/DX2                !
 ! A20   A(9,10,38)            119.4751         estimate D2E/DX2                !
 ! A21   A(11,10,38)           119.4515         estimate D2E/DX2                !
 ! A22   A(9,12,13)            113.3379         estimate D2E/DX2                !
 ! A23   A(9,12,21)            109.5432         estimate D2E/DX2                !
 ! A24   A(9,12,22)            109.4808         estimate D2E/DX2                !
 ! A25   A(13,12,21)           107.467          estimate D2E/DX2                !
 ! A26   A(13,12,22)           107.4759         estimate D2E/DX2                !
 ! A27   A(21,12,22)           109.4528         estimate D2E/DX2                !
 ! A28   A(12,13,14)           114.4957         estimate D2E/DX2                !
 ! A29   A(12,13,23)           109.5107         estimate D2E/DX2                !
 ! A30   A(12,13,24)           109.5041         estimate D2E/DX2                !
 ! A31   A(14,13,23)           106.9064         estimate D2E/DX2                !
 ! A32   A(14,13,24)           106.8794         estimate D2E/DX2                !
 ! A33   A(23,13,24)           109.4148         estimate D2E/DX2                !
 ! A34   A(13,14,15)           115.2573         estimate D2E/DX2                !
 ! A35   A(13,14,25)           109.5067         estimate D2E/DX2                !
 ! A36   A(13,14,26)           109.4537         estimate D2E/DX2                !
 ! A37   A(15,14,25)           106.5601         estimate D2E/DX2                !
 ! A38   A(15,14,26)           106.4832         estimate D2E/DX2                !
 ! A39   A(25,14,26)           109.4174         estimate D2E/DX2                !
 ! A40   A(14,15,16)           113.0234         estimate D2E/DX2                !
 ! A41   A(14,15,27)           109.5279         estimate D2E/DX2                !
 ! A42   A(14,15,28)           109.4462         estimate D2E/DX2                !
 ! A43   A(16,15,27)           107.692          estimate D2E/DX2                !
 ! A44   A(16,15,28)           107.6494         estimate D2E/DX2                !
 ! A45   A(27,15,28)           109.4298         estimate D2E/DX2                !
 ! A46   A(15,16,17)           109.4937         estimate D2E/DX2                !
 ! A47   A(15,16,18)           109.5348         estimate D2E/DX2                !
 ! A48   A(15,16,19)           109.5113         estimate D2E/DX2                !
 ! A49   A(17,16,18)           109.4371         estimate D2E/DX2                !
 ! A50   A(17,16,19)           109.4346         estimate D2E/DX2                !
 ! A51   A(18,16,19)           109.4156         estimate D2E/DX2                !
 ! A52   A(16,17,32)           109.4665         estimate D2E/DX2                !
 ! A53   A(16,17,33)           109.4458         estimate D2E/DX2                !
 ! A54   A(16,17,34)           109.4707         estimate D2E/DX2                !
 ! A55   A(32,17,33)           109.4982         estimate D2E/DX2                !
 ! A56   A(32,17,34)           109.4176         estimate D2E/DX2                !
 ! A57   A(33,17,34)           109.5285         estimate D2E/DX2                !
 ! A58   A(16,18,35)           109.4797         estimate D2E/DX2                !
 ! A59   A(16,18,36)           109.4792         estimate D2E/DX2                !
 ! A60   A(16,18,37)           109.4632         estimate D2E/DX2                !
 ! A61   A(35,18,36)           109.4866         estimate D2E/DX2                !
 ! A62   A(35,18,37)           109.4712         estimate D2E/DX2                !
 ! A63   A(36,18,37)           109.4474         estimate D2E/DX2                !
 ! A64   A(16,19,29)           109.5004         estimate D2E/DX2                !
 ! A65   A(16,19,30)           109.4785         estimate D2E/DX2                !
 ! A66   A(16,19,31)           109.4575         estimate D2E/DX2                !
 ! A67   A(29,19,30)           109.5066         estimate D2E/DX2                !
 ! A68   A(29,19,31)           109.4757         estimate D2E/DX2                !
 ! A69   A(30,19,31)           109.4086         estimate D2E/DX2                !
 ! A70   A(10,38,39)           119.015          estimate D2E/DX2                !
 ! A71   A(10,38,40)           120.509          estimate D2E/DX2                !
 ! A72   A(39,38,40)           120.476          estimate D2E/DX2                !
 ! A73   A(38,40,41)           109.4462         estimate D2E/DX2                !
 ! A74   A(38,40,42)           109.47           estimate D2E/DX2                !
 ! A75   A(38,40,43)           109.4793         estimate D2E/DX2                !
 ! A76   A(41,40,42)           109.4848         estimate D2E/DX2                !
 ! A77   A(41,40,43)           109.547          estimate D2E/DX2                !
 ! A78   A(42,40,43)           109.4001         estimate D2E/DX2                !
 ! D1    D(2,1,5,6)           -149.4196         estimate D2E/DX2                !
 ! D2    D(2,1,5,7)             30.532          estimate D2E/DX2                !
 ! D3    D(3,1,5,6)             90.531          estimate D2E/DX2                !
 ! D4    D(3,1,5,7)            -89.5174         estimate D2E/DX2                !
 ! D5    D(4,1,5,6)            -29.4835         estimate D2E/DX2                !
 ! D6    D(4,1,5,7)            150.4681         estimate D2E/DX2                !
 ! D7    D(1,5,7,8)              0.0305         estimate D2E/DX2                !
 ! D8    D(1,5,7,9)           -179.9898         estimate D2E/DX2                !
 ! D9    D(6,5,7,8)            179.9819         estimate D2E/DX2                !
 ! D10   D(6,5,7,9)             -0.0385         estimate D2E/DX2                !
 ! D11   D(5,7,9,10)          -179.9828         estimate D2E/DX2                !
 ! D12   D(5,7,9,12)            55.8951         estimate D2E/DX2                !
 ! D13   D(5,7,9,20)           -55.9299         estimate D2E/DX2                !
 ! D14   D(8,7,9,10)            -0.0037         estimate D2E/DX2                !
 ! D15   D(8,7,9,12)          -124.1259         estimate D2E/DX2                !
 ! D16   D(8,7,9,20)           124.0492         estimate D2E/DX2                !
 ! D17   D(7,9,10,11)           -0.0674         estimate D2E/DX2                !
 ! D18   D(7,9,10,38)          179.9411         estimate D2E/DX2                !
 ! D19   D(12,9,10,11)         121.3974         estimate D2E/DX2                !
 ! D20   D(12,9,10,38)         -58.594          estimate D2E/DX2                !
 ! D21   D(20,9,10,11)        -122.2004         estimate D2E/DX2                !
 ! D22   D(20,9,10,38)          57.8081         estimate D2E/DX2                !
 ! D23   D(7,9,12,13)         -172.5704         estimate D2E/DX2                !
 ! D24   D(7,9,12,21)          -52.5678         estimate D2E/DX2                !
 ! D25   D(7,9,12,22)           67.4597         estimate D2E/DX2                !
 ! D26   D(10,9,12,13)          65.5917         estimate D2E/DX2                !
 ! D27   D(10,9,12,21)        -174.4058         estimate D2E/DX2                !
 ! D28   D(10,9,12,22)         -54.3783         estimate D2E/DX2                !
 ! D29   D(20,9,12,13)         -56.454          estimate D2E/DX2                !
 ! D30   D(20,9,12,21)          63.5486         estimate D2E/DX2                !
 ! D31   D(20,9,12,22)        -176.4239         estimate D2E/DX2                !
 ! D32   D(9,10,38,39)          -0.04           estimate D2E/DX2                !
 ! D33   D(9,10,38,40)         179.9951         estimate D2E/DX2                !
 ! D34   D(11,10,38,39)        179.9684         estimate D2E/DX2                !
 ! D35   D(11,10,38,40)          0.0035         estimate D2E/DX2                !
 ! D36   D(9,12,13,14)        -177.8883         estimate D2E/DX2                !
 ! D37   D(9,12,13,23)         -57.8561         estimate D2E/DX2                !
 ! D38   D(9,12,13,24)          62.1191         estimate D2E/DX2                !
 ! D39   D(21,12,13,14)         60.9336         estimate D2E/DX2                !
 ! D40   D(21,12,13,23)       -179.0342         estimate D2E/DX2                !
 ! D41   D(21,12,13,24)        -59.0589         estimate D2E/DX2                !
 ! D42   D(22,12,13,14)        -56.7826         estimate D2E/DX2                !
 ! D43   D(22,12,13,23)         63.2496         estimate D2E/DX2                !
 ! D44   D(22,12,13,24)       -176.7751         estimate D2E/DX2                !
 ! D45   D(12,13,14,15)        179.9752         estimate D2E/DX2                !
 ! D46   D(12,13,14,25)        -59.9275         estimate D2E/DX2                !
 ! D47   D(12,13,14,26)         60.0175         estimate D2E/DX2                !
 ! D48   D(23,13,14,15)         58.503          estimate D2E/DX2                !
 ! D49   D(23,13,14,25)        178.6002         estimate D2E/DX2                !
 ! D50   D(23,13,14,26)        -61.4547         estimate D2E/DX2                !
 ! D51   D(24,13,14,15)        -58.5805         estimate D2E/DX2                !
 ! D52   D(24,13,14,25)         61.5168         estimate D2E/DX2                !
 ! D53   D(24,13,14,26)       -178.5381         estimate D2E/DX2                !
 ! D54   D(13,14,15,16)       -179.9921         estimate D2E/DX2                !
 ! D55   D(13,14,15,27)        -59.921          estimate D2E/DX2                !
 ! D56   D(13,14,15,28)         60.0476         estimate D2E/DX2                !
 ! D57   D(25,14,15,16)         58.3074         estimate D2E/DX2                !
 ! D58   D(25,14,15,27)        178.3785         estimate D2E/DX2                !
 ! D59   D(25,14,15,28)        -61.6529         estimate D2E/DX2                !
 ! D60   D(26,14,15,16)        -58.416          estimate D2E/DX2                !
 ! D61   D(26,14,15,27)         61.6551         estimate D2E/DX2                !
 ! D62   D(26,14,15,28)       -178.3763         estimate D2E/DX2                !
 ! D63   D(14,15,16,17)       -179.9634         estimate D2E/DX2                !
 ! D64   D(14,15,16,18)        -59.9524         estimate D2E/DX2                !
 ! D65   D(14,15,16,19)         60.043          estimate D2E/DX2                !
 ! D66   D(27,15,16,17)         58.9198         estimate D2E/DX2                !
 ! D67   D(27,15,16,18)        178.9308         estimate D2E/DX2                !
 ! D68   D(27,15,16,19)        -61.0737         estimate D2E/DX2                !
 ! D69   D(28,15,16,17)        -58.9785         estimate D2E/DX2                !
 ! D70   D(28,15,16,18)         61.0325         estimate D2E/DX2                !
 ! D71   D(28,15,16,19)       -178.972          estimate D2E/DX2                !
 ! D72   D(15,16,17,32)        179.9997         estimate D2E/DX2                !
 ! D73   D(15,16,17,33)        -59.9857         estimate D2E/DX2                !
 ! D74   D(15,16,17,34)         60.0686         estimate D2E/DX2                !
 ! D75   D(18,16,17,32)         59.9289         estimate D2E/DX2                !
 ! D76   D(18,16,17,33)        179.9435         estimate D2E/DX2                !
 ! D77   D(18,16,17,34)        -60.0022         estimate D2E/DX2                !
 ! D78   D(19,16,17,32)        -59.9598         estimate D2E/DX2                !
 ! D79   D(19,16,17,33)         60.0547         estimate D2E/DX2                !
 ! D80   D(19,16,17,34)       -179.891          estimate D2E/DX2                !
 ! D81   D(15,16,18,35)        179.9927         estimate D2E/DX2                !
 ! D82   D(15,16,18,36)        -59.9784         estimate D2E/DX2                !
 ! D83   D(15,16,18,37)         59.9924         estimate D2E/DX2                !
 ! D84   D(17,16,18,35)        -59.9617         estimate D2E/DX2                !
 ! D85   D(17,16,18,36)         60.0671         estimate D2E/DX2                !
 ! D86   D(17,16,18,37)       -179.962          estimate D2E/DX2                !
 ! D87   D(19,16,18,35)         59.9387         estimate D2E/DX2                !
 ! D88   D(19,16,18,36)        179.9676         estimate D2E/DX2                !
 ! D89   D(19,16,18,37)        -60.0616         estimate D2E/DX2                !
 ! D90   D(15,16,19,29)        179.9827         estimate D2E/DX2                !
 ! D91   D(15,16,19,30)        -59.9517         estimate D2E/DX2                !
 ! D92   D(15,16,19,31)         59.9677         estimate D2E/DX2                !
 ! D93   D(17,16,19,29)         59.953          estimate D2E/DX2                !
 ! D94   D(17,16,19,30)       -179.9813         estimate D2E/DX2                !
 ! D95   D(17,16,19,31)        -60.0619         estimate D2E/DX2                !
 ! D96   D(18,16,19,29)        -59.9489         estimate D2E/DX2                !
 ! D97   D(18,16,19,30)         60.1168         estimate D2E/DX2                !
 ! D98   D(18,16,19,31)       -179.9639         estimate D2E/DX2                !
 ! D99   D(10,38,40,41)        -74.824          estimate D2E/DX2                !
 ! D100  D(10,38,40,42)        165.1755         estimate D2E/DX2                !
 ! D101  D(10,38,40,43)         45.2584         estimate D2E/DX2                !
 ! D102  D(39,38,40,41)        105.2116         estimate D2E/DX2                !
 ! D103  D(39,38,40,42)        -14.7889         estimate D2E/DX2                !
 ! D104  D(39,38,40,43)       -134.706          estimate D2E/DX2                !
 --------------------------------------------------------------------------------
 Trust Radius=3.00D-01 FncErr=1.00D-07 GrdErr=1.00D-06 EigMax=2.50D+02 EigMin=1.00D-04
 Number of steps in this run=    234 maximum allowed number of steps=    258.
 GradGradGradGradGradGradGradGradGradGradGradGradGradGradGradGradGradGrad

 Leave Link  103 at Mon Jun  1 08:50:16 2026, MaxMem=    67108864 cpu:               0.2 elap:               0.0
 (Enter /software/local/apps/gaussian-16.0/g16/l202.exe)
                          Input orientation:                          
 ---------------------------------------------------------------------
 Center     Atomic      Atomic             Coordinates (Angstroms)
 Number     Number       Type             X           Y           Z
 ---------------------------------------------------------------------
      1          6           0       20.042000    3.684000    7.511000
      2          1           0       21.002000    3.315000    7.871000
      3          1           0       19.479000    2.863000    7.069000
      4          1           0       19.479000    4.104000    8.345000
      5          6           0       20.274000    4.762000    6.462000
      6          8           0       19.459000    5.673000    6.332000
      7          7           0       21.362000    4.712000    5.690000
      8          1           0       22.007000    3.947000    5.829000
      9          6           0       21.611000    5.728000    4.679000
     10          6           0       22.926000    5.413000    3.952000
     11          8           0       23.598000    4.426000    4.253000
     12          6           0       21.608000    7.103000    5.352000
     13          6           0       21.681000    8.266000    4.357000
     14          6           0       21.731000    9.655000    5.005000
     15          6           0       21.805000   10.833000    4.024000
     16          7           0       21.851000   12.142000    4.698000
     17          6           0       21.922000   13.247000    3.656000
     18          6           0       20.600000   12.323000    5.543000
     19          6           0       23.079000   12.210000    5.592000
     20          1           0       20.758000    5.785000    4.002000
     21          1           0       20.692000    7.224000    5.930000
     22          1           0       22.469000    7.185000    6.015000
     23          1           0       22.579000    8.168000    3.748000
     24          1           0       20.802000    8.249000    3.712000
     25          1           0       20.836000    9.808000    5.607000
     26          1           0       22.613000    9.727000    5.642000
     27          1           0       22.703000   10.743000    3.414000
     28          1           0       20.926000   10.824000    3.379000
     29          1           0       23.113000   13.178000    6.090000
     30          1           0       23.029000   11.418000    6.339000
     31          1           0       23.976000   12.081000    4.987000
     32          1           0       21.956000   14.215000    4.155000
     33          1           0       22.819000   13.118000    3.051000
     34          1           0       21.041000   13.200000    3.016000
     35          1           0       20.635000   13.291000    6.041000
     36          1           0       19.719000   12.275000    4.903000
     37          1           0       20.549000   11.531000    6.291000
     38          7           0       23.348000    6.222000    2.978000
     39          1           0       22.791000    7.030000    2.736000
     40          6           0       24.586000    5.946000    2.277000
     41          1           0       25.430000    6.199000    2.918000
     42          1           0       24.629000    6.544000    1.366000
     43          1           0       24.629000    4.888000    2.018000
 ---------------------------------------------------------------------
                    Distance matrix (angstroms):
                    1          2          3          4          5
     1  C    0.000000
     2  H    1.089661   0.000000
     3  H    1.089208   1.779617   0.000000
     4  H    1.090378   1.779530   1.779960   0.000000
     5  C    1.521943   2.146875   2.146317   2.147249   0.000000
     6  O    2.384544   3.210846   2.905111   2.552319   1.229246
     7  N    2.472898   2.614951   2.977605   3.311250   1.335001
     8  H    2.599907   2.362036   3.017191   3.570111   2.016979
     9  C    3.828828   4.047507   4.297179   4.541184   2.428953
    10  C    4.896262   4.843753   5.300943   5.735306   3.709044
    11  O    4.879576   4.589495   5.228670   5.815007   4.005191
    12  C    4.336265   4.589285   5.045625   4.741803   2.914093
    13  C    5.799031   6.109144   6.433985   6.170510   4.323042
    14  C    6.692204   6.995784   7.447339   6.858623   5.309157
    15  C    8.147118   8.483192   8.843257   8.328311   6.718991
    16  N    9.095230   9.418315   9.866502   9.139827   7.750034
    17  C   10.480763  10.828539  11.200191  10.561696   9.087616
    18  C    8.877878   9.312639   9.647638   8.755559   7.623618
    19  C    9.251951   9.414287  10.124620   9.286886   8.006099
    20  H    4.152100   4.596694   4.424976   4.829415   2.707838
    21  H    3.931114   4.375370   4.667656   4.127711   2.553271
    22  H    4.515013   4.535827   5.360103   4.884830   3.299813
    23  H    6.379874   6.560310   6.984416   6.874482   4.927439
    24  H    5.987422   6.456132   6.482960   6.355788   4.472187
    25  H    6.462123   6.878394   7.225781   6.470990   5.148688
    26  H    6.827961   6.976927   7.679374   6.981855   5.549283
    27  H    8.584626   8.827992   9.265398   8.876106   7.138817
    28  H    8.296655   8.750367   8.893111   8.480175   6.832118
    29  H   10.079004  10.242414  10.980147  10.031374   8.889733
    30  H    8.373202   8.492018   9.291040   8.373836   7.204685
    31  H    9.610231   9.695612  10.465623   9.753548   8.333558
    32  H   11.217312  11.555465  11.978933  11.221584   9.874745
    33  H   10.798319  11.073965  11.509342  10.974253   9.377349
    34  H   10.571532  11.012982  11.212503  10.657171   9.146751
    35  H    9.736889  10.149097  10.542120   9.541788   8.547011
    36  H    8.983945   9.525582   9.660999   8.869623   7.693093
    37  H    7.957440   8.378799   8.768375   7.779727   6.776742
    38  N    6.157854   6.155958   6.556548   6.946926   4.870250
    39  H    6.446188   6.585588   6.863536   7.140847   5.036089
    40  C    7.291045   7.145632   7.651771   8.142176   6.124494
    41  H    7.513416   7.242710   7.985869   8.322004   6.419442
    42  H    8.184204   8.117672   8.520356   9.010135   6.936192
    43  H    7.256944   7.063078   7.492378   8.195614   6.223426
                    6          7          8          9         10
     6  O    0.000000
     7  N    2.226453   0.000000
     8  H    3.118395   1.010233   0.000000
     9  C    2.714137   1.454778   2.156682   0.000000
    10  C    4.213323   2.440930   2.552811   1.535246   0.000000
    11  O    4.796725   2.673287   2.290087   2.413472   1.231403
    12  C    2.761069   2.427270   3.216686   1.530870   2.559927
    13  C    3.944814   3.809142   4.574584   2.559302   3.139054
    14  C    4.772760   5.003862   5.773770   3.942335   4.531159
    15  C    6.120145   6.359123   7.121504   5.150503   5.535181
    16  N    7.087989   7.511863   8.274148   6.418517   6.855041
    17  C    8.401953   8.791870   9.550872   7.594644   7.903619
    18  C    6.793151   7.650462   8.498166   6.727752   7.462550
    19  C    7.508953   7.692704   8.335618   6.708570   6.993727
    20  H    2.669990   2.089375   2.876834   1.090499   2.200252
    21  H    2.021755   2.610870   3.532443   2.155824   3.490410
    22  H    3.383302   2.728883   3.276078   2.154973   2.757681
    23  H    4.757781   4.146853   4.740737   2.785208   2.784250
    24  H    3.912010   4.091021   4.943776   2.818690   3.551320
    25  H    4.418142   5.123747   5.980957   4.255374   5.140345
    26  H    5.182541   5.168900   5.814689   4.233601   4.643777
    27  H    6.689033   6.584179   7.245844   5.286106   5.361723
    28  H    6.115971   6.548844   7.379986   5.303625   5.797176
    29  H    8.350767   8.654430   9.300684   7.729775   8.056130
    30  H    6.763873   6.940499   7.557806   6.094458   6.462848
    31  H    7.954544   7.850437   8.411176   6.785919   6.829052
    32  H    9.161883   9.644484  10.403687   8.510157   8.857613
    33  H    8.802419   8.930174   9.616853   7.663012   7.758239
    34  H    8.375817   8.905024   9.719266   7.676018   8.066393
    35  H    7.713727   8.616900   9.446569   7.746392   8.466138
    36  H    6.759885   7.779318   8.686081   6.818581   7.633891
    37  H    5.958687   6.893543   7.736683   6.115652   6.967853
    38  N    5.164788   3.685002   3.886143   2.480848   1.334631
    39  H    5.086737   4.017621   4.436913   2.619705   2.027701
    40  C    6.542452   4.854431   4.823271   3.829850   2.417708
    41  H    6.898182   5.142351   5.026167   4.231752   2.820810
    42  H    7.221405   5.720707   5.791171   4.555233   3.296478
    43  H    6.779065   4.918114   4.720602   4.110334   2.629865
                   11         12         13         14         15
    11  O    0.000000
    12  C    3.512012   0.000000
    13  C    4.293170   1.532293   0.000000
    14  C    5.603002   2.578419   1.533534   0.000000
    15  C    6.657097   3.964252   2.591477   1.534771   0.000000
    16  N    7.923805   5.087070   3.894683   2.508748   1.473049
    17  C    8.998635   6.381516   5.035856   3.841711   2.444690
    18  C    8.544865   5.319863   4.362844   2.947343   2.445299
    19  C    7.915361   5.320046   4.362885   2.947829   2.444960
    20  H    3.158399   2.069329   2.670827   4.114564   5.155482
    21  H    4.368749   1.089854   2.130308   2.800876   4.230424
    22  H    3.462855   1.089777   2.130368   2.768690   4.208667
    23  H    3.911004   2.156359   1.089444   2.123752   2.788813
    24  H    4.767140   2.156978   1.090392   2.124082   2.789338
    25  H    6.199023   2.824541   2.157380   1.089421   2.120254
    26  H    5.567778   2.824801   2.157399   1.090356   2.119911
    27  H    6.435016   4.266670   2.840645   2.158659   1.089314
    28  H    6.988409   4.266579   2.840752   2.158347   1.090297
    29  H    8.955853   6.302007   5.402005   3.936836   3.387956
    30  H    7.318690   4.648939   3.959865   2.563694   2.683212
    31  H    7.699394   5.524593   4.496460   3.305424   2.682930
    32  H    9.926242   7.220419   5.958778   4.643999   3.387903
    33  H    8.809229   6.552965   5.151950   4.122406   2.682564
    34  H    9.222337   6.553762   5.152886   4.123014   2.683738
    35  H    9.516540   6.301809   5.401907   3.936370   3.388060
    36  H    8.779291   5.524446   4.496626   3.304988   2.683915
    37  H    7.995678   4.648697   3.960051   2.563259   2.684032
    38  N    2.216696   3.072399   2.976318   4.302198   4.973559
    39  H    3.119832   2.871981   2.321085   3.628028   4.134483
    40  C    2.681626   4.434271   4.260026   5.417535   5.888017
    41  H    2.877843   4.620526   4.516438   5.475592   5.986469
    42  H    3.726078   5.032605   4.538950   5.596342   5.782340
    43  H    2.504322   5.014800   5.056927   6.328101   6.880555
                   16         17         18         19         20
    16  N    0.000000
    17  C    1.520470   0.000000
    18  C    1.520456   2.482384   0.000000
    19  C    1.520475   2.482361   2.482058   0.000000
    20  H    6.487720   7.560162   6.719010   7.013969   0.000000
    21  H    5.200753   6.554426   5.114493   5.538250   2.406712
    22  H    5.166068   6.527782   5.487713   5.079533   2.989931
    23  H    4.150320   5.122143   4.939888   4.470805   3.009858
    24  H    4.150668   5.122259   4.471112   4.940511   2.481397
    25  H    2.702603   4.100307   2.526859   3.286469   4.332048
    26  H    2.702592   4.100253   3.286516   2.526845   4.655104
    27  H    2.081288   2.634111   3.384029   2.652763   5.358221
    28  H    2.081468   2.634326   2.652579   3.384342   5.080145
    29  H    2.145601   2.710645   2.710240   1.089121   8.035062
    30  H    2.145866   3.430624   2.711583   1.089850   6.507665
    31  H    2.145429   2.711094   3.430026   1.089621   7.139003
    32  H    2.145508   1.089578   2.710156   2.710373   8.516074
    33  H    2.145276   1.089621   3.430168   2.710857   7.676263
    34  H    2.145830   1.089940   2.710966   3.430644   7.485620
    35  H    2.145345   2.710448   1.089152   2.709852   7.778990
    36  H    2.145959   2.711642   1.089984   3.430531   6.634110
    37  H    2.146200   3.431182   1.090582   2.711188   6.188677
    38  N    6.343958   7.200263   7.166096   6.539228   2.819157
    39  H    5.555681   6.344498   6.379309   5.922169   2.699235
    40  C    7.192488   7.893234   8.198846   7.245548   4.201801
    41  H    7.162185   7.907276   8.229393   6.986387   4.813942
    42  H    7.082169   7.583018   8.190056   7.236376   4.744388
    43  H    8.217068   8.937772   9.161752   8.293833   4.441341
                   21         22         23         24         25
    21  H    0.000000
    22  H    1.779459   0.000000
    23  H    3.035297   2.473394   0.000000
    24  H    2.445864   3.035588   1.779209   0.000000
    25  H    2.608088   3.116614   3.030434   2.454111   0.000000
    26  H    3.168311   2.573253   2.453339   3.031354   1.779189
    27  H    4.770507   4.413538   2.599530   3.150022   3.028063
    28  H    4.418411   4.750965   3.150064   2.599402   2.450375
    29  H    6.429382   6.027969   5.556098   5.940593   4.095719
    30  H    4.818556   4.282157   4.180703   4.680087   2.817299
    31  H    5.938380   5.224811   4.335701   5.136548   3.925625
    32  H    7.322732   7.289970   6.092617   6.092710   4.773296
    33  H    6.895796   6.641407   5.004589   5.311532   4.628339
    34  H    6.657760   6.871201   5.312466   5.005391   4.273286
    35  H    6.068283   6.375537   5.939875   5.556428   3.515686
    36  H    5.245385   5.891277   5.136251   4.335902   2.798105
    37  H    4.324467   4.759232   4.679478   4.181719   1.875888
    38  N    4.095442   3.305054   2.229614   3.336106   5.106974
    39  H    3.826888   3.298416   1.537573   2.528766   4.447690
    40  C    5.490076   4.470957   3.336042   4.656360   6.329806
    41  H    5.707137   4.396718   3.562873   5.123604   6.431208
    42  H    6.065679   5.166206   3.537485   4.801736   6.559468
    43  H    6.021678   5.090955   4.237192   5.367670   7.174550
                   26         27         28         29         30
    26  H    0.000000
    27  H    2.450375   0.000000
    28  H    3.028291   1.779189   0.000000
    29  H    3.515694   3.641195   4.204023   0.000000
    30  H    1.875725   3.019524   3.679272   1.779510   0.000000
    31  H    2.797876   2.425923   3.669906   1.778985   1.778843
    32  H    4.773360   3.627930   3.627941   2.481581   3.707343
    33  H    4.272540   2.405379   2.992235   3.053777   3.707431
    34  H    4.629124   2.992908   2.406319   3.707175   4.262628
    35  H    4.095581   4.203577   3.641018   2.481059   3.054205
    36  H    3.926024   3.669932   2.425866   3.707238   3.708456
    37  H    2.817040   3.679373   3.020219   3.054031   2.483037
    38  N    4.463423   4.587544   5.215869   7.624022   6.196491
    39  H    3.968668   3.775420   4.276226   7.010771   5.682675
    40  C    5.432487   5.277278   6.197168   8.307257   6.990485
    41  H    5.272803   5.322639   6.472184   8.008528   6.686255
    42  H    5.699116   5.053254   6.006894   8.283984   7.144691
    43  H    6.372876   6.319756   7.127456   9.359676   7.991992
                   31         32         33         34         35
    31  H    0.000000
    32  H    3.053945   0.000000
    33  H    2.482361   1.779605   0.000000
    34  H    3.708265   1.778980   1.780234   0.000000
    35  H    3.706386   2.481091   3.706735   3.053480   0.000000
    36  H    4.262246   3.054058   3.708174   2.482756   1.779426
    37  H    3.707728   3.707560   4.262519   3.708537   1.779746
    38  N    6.225620   8.198234   6.916646   7.349570   8.167809
    39  H    5.655425   7.371229   6.096208   6.419486   7.400776
    40  C    6.734569   8.878071   7.426907   8.107630   9.150253
    41  H    6.402562   8.823554   7.396457   8.263590   9.112717
    42  H    6.648039   8.588812   7.023731   7.739417   9.128509
    43  H    7.809009   9.935020   8.489764   9.108188  10.136418
                   36         37         38         39         40
    36  H    0.000000
    37  H    1.780163   0.000000
    38  N    7.315332   6.855352   0.000000
    39  H    6.453146   6.158213   1.010780   0.000000
    40  C    8.404749   7.975073   1.449214   2.146570   0.000000
    41  H    8.571670   7.976936   2.082991   2.772725   1.089599
    42  H    8.334436   8.110006   2.084032   2.343361   1.090584
    43  H    9.327330   8.890128   2.083775   2.912376   1.090089
                   41         42         43
    41  H    0.000000
    42  H    1.780261   0.000000
    43  H    1.780540   1.779730   0.000000
 Stoichiometry    C12H26N3O2(1+)
 Framework group  C1[X(C12H26N3O2)]
 Deg. of freedom   123
 Full point group                 C1      NOp   1
 Largest Abelian subgroup         C1      NOp   1
 Largest concise Abelian subgroup C1      NOp   1
                         Standard orientation:                         
 ---------------------------------------------------------------------
 Center     Atomic      Atomic             Coordinates (Angstroms)
 Number     Number       Type             X           Y           Z
 ---------------------------------------------------------------------
      1          6           0        4.537185   -2.751404    0.454918
      2          1           0        4.903801   -2.276083    1.364326
      3          1           0        5.331028   -2.771859   -0.290582
      4          1           0        4.222798   -3.770937    0.679948
      5          6           0        3.353075   -1.963779   -0.087151
      6          8           0        2.464754   -2.545537   -0.706416
      7          7           0        3.286044   -0.645751    0.114187
      8          1           0        4.036412   -0.206070    0.628190
      9          6           0        2.166701    0.133753   -0.391603
     10          6           0        2.359158    1.608823   -0.011987
     11          8           0        3.345259    1.977230    0.626946
     12          6           0        0.865857   -0.464060    0.150604
     13          6           0       -0.391518    0.164136   -0.459559
     14          6           0       -1.710728   -0.379740    0.102232
     15          6           0       -2.981677    0.238080   -0.496525
     16          7           0       -4.218619   -0.318980    0.077523
     17          6           0       -5.422879    0.345753   -0.570333
     18          6           0       -4.268573   -1.816807   -0.179003
     19          6           0       -4.243902   -0.061679    1.575856
     20          1           0        2.075086   -0.016261   -1.467841
     21          1           0        0.836730   -1.531584   -0.066937
     22          1           0        0.817568   -0.311902    1.228625
     23          1           0       -0.387648    1.237952   -0.275729
     24          1           0       -0.405419   -0.019556   -1.534277
     25          1           0       -1.770094   -1.451818   -0.082054
     26          1           0       -1.752421   -0.193619    1.175777
     27          1           0       -2.985861    1.311823   -0.313052
     28          1           0       -3.003533    0.053624   -1.570883
     29          1           0       -5.158656   -0.473345    2.000049
     30          1           0       -3.380776   -0.537591    2.040931
     31          1           0       -4.208773    1.011615    1.760463
     32          1           0       -6.337534   -0.066603   -0.145423
     33          1           0       -5.387750    1.419048   -0.385726
     34          1           0       -5.406379    0.160037   -1.644207
     35          1           0       -5.183365   -2.227756    0.245886
     36          1           0       -4.251079   -2.002429   -1.252922
     37          1           0       -3.405311   -2.294127    0.286093
     38          7           0        1.442853    2.506625   -0.380196
     39          1           0        0.636281    2.197056   -0.904873
     40          6           0        1.601965    3.904797   -0.033762
     41          1           0        1.382094    4.043636    1.024353
     42          1           0        0.915844    4.507387   -0.629998
     43          1           0        2.626916    4.215318   -0.237101
 ---------------------------------------------------------------------
 Rotational constants (GHZ):           0.5847015           0.1935112           0.1535322
 Leave Link  202 at Mon Jun  1 08:50:16 2026, MaxMem=    67108864 cpu:               0.1 elap:               0.0
 (Enter /software/local/apps/gaussian-16.0/g16/l301.exe)
 Standard basis: 6-31G(d) (6D, 7F)
 Ernie: Thresh=  0.10000D-02 Tol=  0.10000D-05 Strict=F.
 There are   307 symmetry adapted cartesian basis functions of A   symmetry.
 There are   307 symmetry adapted basis functions of A   symmetry.
   307 basis functions,   580 primitive gaussians,   307 cartesian basis functions
    67 alpha electrons       67 beta electrons
       nuclear repulsion energy      1292.4199049022 Hartrees.
 IExCor=  402 DFT=T Ex+Corr=B3LYP ExCW=0 ScaHFX=  0.200000
 ScaDFX=  0.800000  0.720000  1.000000  0.810000 ScalE2=  1.000000  1.000000
 IRadAn=      5 IRanWt=     -1 IRanGd=            0 ICorTp=0 IEmpDi=  4
 NAtoms=   43 NActive=   43 NUniq=   43 SFac= 1.00D+00 NAtFMM=   60 NAOKFM=F Big=F
 Integral buffers will be    131072 words long.
 Raffenetti 2 integral format.
 Two-electron integral symmetry is turned on.
 Leave Link  301 at Mon Jun  1 08:50:16 2026, MaxMem=    67108864 cpu:               0.8 elap:               0.1
 (Enter /software/local/apps/gaussian-16.0/g16/l302.exe)
 NPDir=0 NMtPBC=     1 NCelOv=     1 NCel=       1 NClECP=     1 NCelD=      1
         NCelK=      1 NCelE2=     1 NClLst=     1 CellRange=     0.0.
 One-electron integrals computed using PRISM.
 One-electron integral symmetry used in STVInt
 NBasis=   307 RedAO= T EigKep=  1.67D-03  NBF=   307
 NBsUse=   307 1.00D-06 EigRej= -1.00D+00 NBFU=   307
 Precomputing XC quadrature grid using
 IXCGrd= 4 IRadAn=           5 IRanWt=          -1 IRanGd=           0 AccXCQ= 0.00D+00.
 Generated NRdTot=       0 NPtTot=           0 NUsed=           0 NTot=          32
 NSgBfM=   305   305   305   305   305 MxSgAt=    43 MxSgA2=    43.
 Leave Link  302 at Mon Jun  1 08:50:16 2026, MaxMem=    67108864 cpu:               6.3 elap:               0.4
 (Enter /software/local/apps/gaussian-16.0/g16/l303.exe)
 DipDrv:  MaxL=1.
 Leave Link  303 at Mon Jun  1 08:50:16 2026, MaxMem=    67108864 cpu:               0.5 elap:               0.1
 (Enter /software/local/apps/gaussian-16.0/g16/l401.exe)
 ExpMin= 1.61D-01 ExpMax= 5.48D+03 ExpMxC= 8.25D+02 IAcc=3 IRadAn=         5 AccDes= 0.00D+00
 Harris functional with IExCor=  402 and IRadAn=       5 diagonalized for initial guess.
 HarFok:  IExCor=  402 AccDes= 0.00D+00 IRadAn=         5 IDoV= 1 UseB2=F ITyADJ=14
 ICtDFT=  3500011 ScaDFX=  1.000000  1.000000  1.000000  1.000000
 FoFCou: FMM=F IPFlag=           0 FMFlag=      100000 FMFlg1=           0
         NFxFlg=           0 DoJE=T BraDBF=F KetDBF=T FulRan=T
         wScrn=  0.000000 ICntrl=       500 IOpCl=  0 I1Cent=   200000004 NGrid=           0
         NMat0=    1 NMatS0=      1 NMatT0=    0 NMatD0=    1 NMtDS0=    0 NMtDT0=    0
 Petite list used in FoFCou.
 Harris En= -787.474379132075    
 JPrj=0 DoOrth=F DoCkMO=F.
 Leave Link  401 at Mon Jun  1 08:50:18 2026, MaxMem=    67108864 cpu:              19.4 elap:               1.2
 (Enter /software/local/apps/gaussian-16.0/g16/l502.exe)
 Integral symmetry usage will be decided dynamically.
 Closed shell SCF:
 Using DIIS extrapolation, IDIIS=  1040.
 NGot=    67108864 LenX=    66910697 LenY=    66816007
 Requested convergence on RMS density matrix=1.00D-08 within 128 cycles.
 Requested convergence on MAX density matrix=1.00D-06.
 Requested convergence on             energy=1.00D-06.
 No special actions if energy rises.
 Fock matrices will be formed incrementally for  20 cycles.
 Integral accuracy reduced to 1.0D-05 until final iterations.

 Cycle   1  Pass 0  IDiag  1:
 FoFJK:  IHMeth= 1 ICntrl=       0 DoSepK=F KAlg= 0 I1Cent=           0 FoldK=F
 IRaf= 770000000 NMat=       1 IRICut=       1 DoRegI=T DoRafI=F ISym2E= 0 IDoP0=0 IntGTp=1.
 FoFCou: FMM=F IPFlag=           0 FMFlag=      100000 FMFlg1=           0
         NFxFlg=           0 DoJE=F BraDBF=F KetDBF=F FulRan=T
         wScrn=  0.000000 ICntrl=         0 IOpCl=  0 I1Cent=           0 NGrid=           0
         NMat0=    1 NMatS0=      1 NMatT0=    0 NMatD0=    1 NMtDS0=    0 NMtDT0=    0
 Symmetry not used in FoFCou.
 E= -786.899806798287    
 DIIS: error= 3.04D-02 at cycle   1 NSaved=   1.
 NSaved= 1 IEnMin= 1 EnMin= -786.899806798287     IErMin= 1 ErrMin= 3.04D-02
 ErrMax= 3.04D-02  0.00D+00 EMaxC= 1.00D-01 BMatC= 5.61D-01 BMatP= 5.61D-01
 IDIUse=3 WtCom= 6.96D-01 WtEn= 3.04D-01
 Coeff-Com:  0.100D+01
 Coeff-En:   0.100D+01
 Coeff:      0.100D+01
 Gap=     0.254 Goal=   None    Shift=    0.000
 GapD=    0.254 DampG=1.000 DampE=0.500 DampFc=0.5000 IDamp=-1.
 Damping current iteration by 5.00D-01
 RMSDP=6.15D-03 MaxDP=2.15D-01              OVMax= 3.20D-01

 Cycle   2  Pass 0  IDiag  1:
 RMSU=  3.07D-03    CP:  9.88D-01
 E= -787.060546271896     Delta-E=       -0.160739473610 Rises=F Damp=T
 DIIS: error= 9.58D-03 at cycle   2 NSaved=   2.
 NSaved= 2 IEnMin= 2 EnMin= -787.060546271896     IErMin= 2 ErrMin= 9.58D-03
 ErrMax= 9.58D-03  0.00D+00 EMaxC= 1.00D-01 BMatC= 8.23D-02 BMatP= 5.61D-01
 IDIUse=3 WtCom= 9.04D-01 WtEn= 9.58D-02
 Coeff-Com:  0.202D+00 0.798D+00
 Coeff-En:   0.304D+00 0.696D+00
 Coeff:      0.212D+00 0.788D+00
 Gap=     0.207 Goal=   None    Shift=    0.000
 RMSDP=1.94D-03 MaxDP=9.97D-02 DE=-1.61D-01 OVMax= 1.93D-01

 Cycle   3  Pass 0  IDiag  1:
 RMSU=  1.61D-03    CP:  9.77D-01  6.53D-01
 E= -787.345646520541     Delta-E=       -0.285100248645 Rises=F Damp=F
 DIIS: error= 1.19D-02 at cycle   3 NSaved=   3.
 NSaved= 3 IEnMin= 3 EnMin= -787.345646520541     IErMin= 2 ErrMin= 9.58D-03
 ErrMax= 1.19D-02  0.00D+00 EMaxC= 1.00D-01 BMatC= 8.02D-02 BMatP= 8.23D-02
 IDIUse=3 WtCom= 8.81D-01 WtEn= 1.19D-01
 Coeff-Com:  0.623D-01 0.489D+00 0.448D+00
 Coeff-En:   0.000D+00 0.000D+00 0.100D+01
 Coeff:      0.549D-01 0.431D+00 0.514D+00
 Gap=     0.222 Goal=   None    Shift=    0.000
 RMSDP=1.22D-03 MaxDP=5.56D-02 DE=-2.85D-01 OVMax= 1.04D-01

 Cycle   4  Pass 0  IDiag  1:
 RMSU=  6.43D-04    CP:  9.85D-01  7.99D-01  4.29D-01
 E= -787.401551378335     Delta-E=       -0.055904857794 Rises=F Damp=F
 DIIS: error= 5.82D-03 at cycle   4 NSaved=   4.
 NSaved= 4 IEnMin= 4 EnMin= -787.401551378335     IErMin= 4 ErrMin= 5.82D-03
 ErrMax= 5.82D-03  0.00D+00 EMaxC= 1.00D-01 BMatC= 1.50D-02 BMatP= 8.02D-02
 IDIUse=3 WtCom= 9.42D-01 WtEn= 5.82D-02
 Coeff-Com:  0.938D-02 0.869D-01 0.309D+00 0.594D+00
 Coeff-En:   0.000D+00 0.000D+00 0.183D+00 0.817D+00
 Coeff:      0.884D-02 0.819D-01 0.302D+00 0.607D+00
 Gap=     0.196 Goal=   None    Shift=    0.000
 RMSDP=4.28D-04 MaxDP=2.28D-02 DE=-5.59D-02 OVMax= 3.29D-02

 Cycle   5  Pass 0  IDiag  1:
 RMSU=  1.62D-04    CP:  9.84D-01  7.39D-01  5.99D-01  6.61D-01
 E= -787.412893141393     Delta-E=       -0.011341763058 Rises=F Damp=F
 DIIS: error= 1.35D-03 at cycle   5 NSaved=   5.
 NSaved= 5 IEnMin= 5 EnMin= -787.412893141393     IErMin= 5 ErrMin= 1.35D-03
 ErrMax= 1.35D-03  0.00D+00 EMaxC= 1.00D-01 BMatC= 9.09D-04 BMatP= 1.50D-02
 IDIUse=3 WtCom= 9.86D-01 WtEn= 1.35D-02
 Coeff-Com:  0.989D-03 0.121D-01 0.134D+00 0.345D+00 0.508D+00
 Coeff-En:   0.000D+00 0.000D+00 0.000D+00 0.000D+00 0.100D+01
 Coeff:      0.976D-03 0.119D-01 0.132D+00 0.340D+00 0.515D+00
 Gap=     0.196 Goal=   None    Shift=    0.000
 RMSDP=1.06D-04 MaxDP=5.16D-03 DE=-1.13D-02 OVMax= 9.70D-03

 Cycle   6  Pass 0  IDiag  1:
 RMSU=  5.26D-05    CP:  9.83D-01  7.49D-01  5.88D-01  6.97D-01  4.93D-01
 E= -787.413609792147     Delta-E=       -0.000716650754 Rises=F Damp=F
 DIIS: error= 3.56D-04 at cycle   6 NSaved=   6.
 NSaved= 6 IEnMin= 6 EnMin= -787.413609792147     IErMin= 6 ErrMin= 3.56D-04
 ErrMax= 3.56D-04  0.00D+00 EMaxC= 1.00D-01 BMatC= 6.25D-05 BMatP= 9.09D-04
 IDIUse=3 WtCom= 9.96D-01 WtEn= 3.56D-03
 Coeff-Com: -0.184D-03-0.800D-03 0.390D-01 0.113D+00 0.273D+00 0.576D+00
 Coeff-En:   0.000D+00 0.000D+00 0.000D+00 0.000D+00 0.000D+00 0.100D+01
 Coeff:     -0.183D-03-0.798D-03 0.388D-01 0.113D+00 0.272D+00 0.577D+00
 Gap=     0.195 Goal=   None    Shift=    0.000
 RMSDP=3.13D-05 MaxDP=1.38D-03 DE=-7.17D-04 OVMax= 2.43D-03

 Cycle   7  Pass 0  IDiag  1:
 RMSU=  1.98D-05    CP:  9.83D-01  7.48D-01  5.90D-01  6.97D-01  5.69D-01
                    CP:  6.07D-01
 E= -787.413651318977     Delta-E=       -0.000041526830 Rises=F Damp=F
 DIIS: error= 2.23D-04 at cycle   7 NSaved=   7.
 NSaved= 7 IEnMin= 7 EnMin= -787.413651318977     IErMin= 7 ErrMin= 2.23D-04
 ErrMax= 2.23D-04  0.00D+00 EMaxC= 1.00D-01 BMatC= 1.39D-05 BMatP= 6.25D-05
 IDIUse=3 WtCom= 9.98D-01 WtEn= 2.23D-03
 Coeff-Com: -0.187D-03-0.168D-02 0.136D-01 0.431D-01 0.140D+00 0.392D+00
 Coeff-Com:  0.413D+00
 Coeff-En:   0.000D+00 0.000D+00 0.000D+00 0.000D+00 0.000D+00 0.132D+00
 Coeff-En:   0.868D+00
 Coeff:     -0.187D-03-0.168D-02 0.136D-01 0.430D-01 0.140D+00 0.391D+00
 Coeff:      0.414D+00
 Gap=     0.196 Goal=   None    Shift=    0.000
 RMSDP=1.27D-05 MaxDP=6.42D-04 DE=-4.15D-05 OVMax= 1.19D-03

 Cycle   8  Pass 0  IDiag  1:
 RMSU=  5.52D-06    CP:  9.83D-01  7.48D-01  5.90D-01  6.99D-01  5.68D-01
                    CP:  6.68D-01  4.59D-01
 E= -787.413662067617     Delta-E=       -0.000010748640 Rises=F Damp=F
 DIIS: error= 2.77D-05 at cycle   8 NSaved=   8.
 NSaved= 8 IEnMin= 8 EnMin= -787.413662067617     IErMin= 8 ErrMin= 2.77D-05
 ErrMax= 2.77D-05  0.00D+00 EMaxC= 1.00D-01 BMatC= 4.59D-07 BMatP= 1.39D-05
 IDIUse=1 WtCom= 1.00D+00 WtEn= 0.00D+00
 Coeff-Com: -0.538D-04-0.796D-03 0.327D-02 0.105D-01 0.458D-01 0.142D+00
 Coeff-Com:  0.204D+00 0.596D+00
 Coeff:     -0.538D-04-0.796D-03 0.327D-02 0.105D-01 0.458D-01 0.142D+00
 Coeff:      0.204D+00 0.596D+00
 Gap=     0.196 Goal=   None    Shift=    0.000
 RMSDP=2.90D-06 MaxDP=1.25D-04 DE=-1.07D-05 OVMax= 1.70D-04

 Initial convergence to 1.0D-05 achieved.  Increase integral accuracy.
 Cycle   9  Pass 1  IDiag  1:
 E= -787.413612722702     Delta-E=        0.000049344916 Rises=F Damp=F
 DIIS: error= 2.53D-05 at cycle   1 NSaved=   1.
 NSaved= 1 IEnMin= 1 EnMin= -787.413612722702     IErMin= 1 ErrMin= 2.53D-05
 ErrMax= 2.53D-05  0.00D+00 EMaxC= 1.00D-01 BMatC= 2.28D-07 BMatP= 2.28D-07
 IDIUse=1 WtCom= 1.00D+00 WtEn= 0.00D+00
 Coeff-Com:  0.100D+01
 Coeff:      0.100D+01
 Gap=     0.196 Goal=   None    Shift=    0.000
 RMSDP=2.90D-06 MaxDP=1.25D-04 DE= 4.93D-05 OVMax= 1.67D-04

 Cycle  10  Pass 1  IDiag  1:
 RMSU=  9.35D-06    CP:  1.00D+00
 E= -787.413612826795     Delta-E=       -0.000000104093 Rises=F Damp=F
 DIIS: error= 1.84D-05 at cycle   2 NSaved=   2.
 NSaved= 2 IEnMin= 2 EnMin= -787.413612826795     IErMin= 2 ErrMin= 1.84D-05
 ErrMax= 1.84D-05  0.00D+00 EMaxC= 1.00D-01 BMatC= 1.52D-07 BMatP= 2.28D-07
 IDIUse=1 WtCom= 1.00D+00 WtEn= 0.00D+00
 Coeff-Com:  0.432D+00 0.568D+00
 Coeff:      0.432D+00 0.568D+00
 Gap=     0.196 Goal=   None    Shift=    0.000
 RMSDP=1.71D-06 MaxDP=9.26D-05 DE=-1.04D-07 OVMax= 1.26D-04

 Cycle  11  Pass 1  IDiag  1:
 RMSU=  1.70D-06    CP:  1.00D+00  9.86D-01
 E= -787.413612903272     Delta-E=       -0.000000076477 Rises=F Damp=F
 DIIS: error= 1.35D-05 at cycle   3 NSaved=   3.
 NSaved= 3 IEnMin= 3 EnMin= -787.413612903272     IErMin= 3 ErrMin= 1.35D-05
 ErrMax= 1.35D-05  0.00D+00 EMaxC= 1.00D-01 BMatC= 6.05D-08 BMatP= 1.52D-07
 IDIUse=1 WtCom= 1.00D+00 WtEn= 0.00D+00
 Coeff-Com:  0.366D-01 0.382D+00 0.582D+00
 Coeff:      0.366D-01 0.382D+00 0.582D+00
 Gap=     0.196 Goal=   None    Shift=    0.000
 RMSDP=8.82D-07 MaxDP=5.69D-05 DE=-7.65D-08 OVMax= 8.95D-05

 Cycle  12  Pass 1  IDiag  1:
 RMSU=  4.56D-07    CP:  1.00D+00  1.00D+00  5.64D-01
 E= -787.413612944782     Delta-E=       -0.000000041510 Rises=F Damp=F
 DIIS: error= 4.98D-06 at cycle   4 NSaved=   4.
 NSaved= 4 IEnMin= 4 EnMin= -787.413612944782     IErMin= 4 ErrMin= 4.98D-06
 ErrMax= 4.98D-06  0.00D+00 EMaxC= 1.00D-01 BMatC= 6.99D-09 BMatP= 6.05D-08
 IDIUse=1 WtCom= 1.00D+00 WtEn= 0.00D+00
 Coeff-Com: -0.272D-02 0.214D+00 0.379D+00 0.410D+00
 Coeff:     -0.272D-02 0.214D+00 0.379D+00 0.410D+00
 Gap=     0.196 Goal=   None    Shift=    0.000
 RMSDP=2.78D-07 MaxDP=1.47D-05 DE=-4.15D-08 OVMax= 3.02D-05

 Cycle  13  Pass 1  IDiag  1:
 RMSU=  7.60D-08    CP:  1.00D+00  1.00D+00  6.20D-01  4.55D-01
 E= -787.413612950432     Delta-E=       -0.000000005650 Rises=F Damp=F
 DIIS: error= 4.58D-07 at cycle   5 NSaved=   5.
 NSaved= 5 IEnMin= 5 EnMin= -787.413612950432     IErMin= 5 ErrMin= 4.58D-07
 ErrMax= 4.58D-07  0.00D+00 EMaxC= 1.00D-01 BMatC= 1.17D-10 BMatP= 6.99D-09
 IDIUse=1 WtCom= 1.00D+00 WtEn= 0.00D+00
 Coeff-Com: -0.242D-02 0.109D+00 0.197D+00 0.234D+00 0.462D+00
 Coeff:     -0.242D-02 0.109D+00 0.197D+00 0.234D+00 0.462D+00
 Gap=     0.196 Goal=   None    Shift=    0.000
 RMSDP=3.63D-08 MaxDP=1.53D-06 DE=-5.65D-09 OVMax= 1.79D-06

 Cycle  14  Pass 1  IDiag  1:
 RMSU=  2.22D-08    CP:  1.00D+00  1.00D+00  6.16D-01  4.48D-01  6.38D-01
 E= -787.413612950529     Delta-E=       -0.000000000097 Rises=F Damp=F
 DIIS: error= 6.14D-08 at cycle   6 NSaved=   6.
 NSaved= 6 IEnMin= 6 EnMin= -787.413612950529     IErMin= 6 ErrMin= 6.14D-08
 ErrMax= 6.14D-08  0.00D+00 EMaxC= 1.00D-01 BMatC= 3.06D-12 BMatP= 1.17D-10
 IDIUse=1 WtCom= 1.00D+00 WtEn= 0.00D+00
 Coeff-Com: -0.871D-03 0.325D-01 0.591D-01 0.747D-01 0.196D+00 0.639D+00
 Coeff:     -0.871D-03 0.325D-01 0.591D-01 0.747D-01 0.196D+00 0.639D+00
 Gap=     0.196 Goal=   None    Shift=    0.000
 RMSDP=8.40D-09 MaxDP=4.46D-07 DE=-9.69D-11 OVMax= 5.19D-07

 SCF Done:  E(RB3LYP) =  -787.413612951     A.U. after   14 cycles
            NFock= 14  Conv=0.84D-08     -V/T= 2.0090
 KE= 7.803704566973D+02 PE=-4.397820457295D+03 EE= 1.537616482745D+03
 Leave Link  502 at Mon Jun  1 08:50:38 2026, MaxMem=    67108864 cpu:             318.7 elap:              20.1
 (Enter /software/local/apps/gaussian-16.0/g16/l601.exe)
 Copying SCF densities to generalized density rwf, IOpCl= 0 IROHF=0.

 **********************************************************************

            Population analysis using the SCF Density.

 **********************************************************************

 Orbital symmetries:
       Occupied  (A) (A) (A) (A) (A) (A) (A) (A) (A) (A) (A) (A)
                 (A) (A) (A) (A) (A) (A) (A) (A) (A) (A) (A) (A)
                 (A) (A) (A) (A) (A) (A) (A) (A) (A) (A) (A) (A)
                 (A) (A) (A) (A) (A) (A) (A) (A) (A) (A) (A) (A)
                 (A) (A) (A) (A) (A) (A) (A) (A) (A) (A) (A) (A)
                 (A) (A) (A) (A) (A) (A) (A)
       Virtual   (A) (A) (A) (A) (A) (A) (A) (A) (A) (A) (A) (A)
                 (A) (A) (A) (A) (A) (A) (A) (A) (A) (A) (A) (A)
                 (A) (A) (A) (A) (A) (A) (A) (A) (A) (A) (A) (A)
                 (A) (A) (A) (A) (A) (A) (A) (A) (A) (A) (A) (A)
                 (A) (A) (A) (A) (A) (A) (A) (A) (A) (A) (A) (A)
                 (A) (A) (A) (A) (A) (A) (A) (A) (A) (A) (A) (A)
                 (A) (A) (A) (A) (A) (A) (A) (A) (A) (A) (A) (A)
                 (A) (A) (A) (A) (A) (A) (A) (A) (A) (A) (A) (A)
                 (A) (A) (A) (A) (A) (A) (A) (A) (A) (A) (A) (A)
                 (A) (A) (A) (A) (A) (A) (A) (A) (A) (A) (A) (A)
                 (A) (A) (A) (A) (A) (A) (A) (A) (A) (A) (A) (A)
                 (A) (A) (A) (A) (A) (A) (A) (A) (A) (A) (A) (A)
                 (A) (A) (A) (A) (A) (A) (A) (A) (A) (A) (A) (A)
                 (A) (A) (A) (A) (A) (A) (A) (A) (A) (A) (A) (A)
                 (A) (A) (A) (A) (A) (A) (A) (A) (A) (A) (A) (A)
                 (A) (A) (A) (A) (A) (A) (A) (A) (A) (A) (A) (A)
                 (A) (A) (A) (A) (A) (A) (A) (A) (A) (A) (A) (A)
                 (A) (A) (A) (A) (A) (A) (A) (A) (A) (A) (A) (A)
                 (A) (A) (A) (A) (A) (A) (A) (A) (A) (A) (A) (A)
                 (A) (A) (A) (A) (A) (A) (A) (A) (A) (A) (A) (A)
 The electronic state is 1-A.
 Alpha  occ. eigenvalues --  -19.19638 -19.17061 -14.63896 -14.45355 -14.43244
 Alpha  occ. eigenvalues --  -10.40739 -10.40540 -10.40438 -10.40034 -10.37304
 Alpha  occ. eigenvalues --  -10.35074 -10.34100 -10.32579 -10.31386 -10.30107
 Alpha  occ. eigenvalues --  -10.28089 -10.25200  -1.18936  -1.12436  -1.10147
 Alpha  occ. eigenvalues --   -1.01469  -0.99748  -0.95930  -0.91786  -0.91708
 Alpha  occ. eigenvalues --   -0.90233  -0.85635  -0.81117  -0.80328  -0.77956
 Alpha  occ. eigenvalues --   -0.75496  -0.71768  -0.69549  -0.69157  -0.68135
 Alpha  occ. eigenvalues --   -0.67359  -0.65471  -0.64361  -0.62145  -0.60907
 Alpha  occ. eigenvalues --   -0.59551  -0.58117  -0.57593  -0.57529  -0.57405
 Alpha  occ. eigenvalues --   -0.57298  -0.55973  -0.55506  -0.55151  -0.53699
 Alpha  occ. eigenvalues --   -0.52725  -0.51592  -0.51119  -0.50435  -0.49201
 Alpha  occ. eigenvalues --   -0.48404  -0.48204  -0.46466  -0.45821  -0.45319
 Alpha  occ. eigenvalues --   -0.45011  -0.44125  -0.41474  -0.34437  -0.33834
 Alpha  occ. eigenvalues --   -0.32558  -0.30925
 Alpha virt. eigenvalues --   -0.11344  -0.07176  -0.06439  -0.06236  -0.05959
 Alpha virt. eigenvalues --   -0.05053  -0.04326  -0.03670  -0.03439  -0.03077
 Alpha virt. eigenvalues --   -0.01311  -0.00719  -0.00539   0.00616   0.01161
 Alpha virt. eigenvalues --    0.01637   0.01950   0.02558   0.03010   0.03609
 Alpha virt. eigenvalues --    0.04208   0.04898   0.05620   0.06277   0.06672
 Alpha virt. eigenvalues --    0.08047   0.08273   0.09109   0.09546   0.09962
 Alpha virt. eigenvalues --    0.10593   0.11382   0.12721   0.12812   0.13906
 Alpha virt. eigenvalues --    0.14636   0.16896   0.17822   0.19132   0.20735
 Alpha virt. eigenvalues --    0.26770   0.27016   0.30016   0.30092   0.32185
 Alpha virt. eigenvalues --    0.32691   0.34109   0.35192   0.35476   0.38462
 Alpha virt. eigenvalues --    0.40652   0.42150   0.43490   0.43995   0.44263
 Alpha virt. eigenvalues --    0.44954   0.46165   0.47207   0.47781   0.48625
 Alpha virt. eigenvalues --    0.49950   0.50193   0.51120   0.52772   0.53262
 Alpha virt. eigenvalues --    0.54269   0.56422   0.58376   0.58453   0.58903
 Alpha virt. eigenvalues --    0.60850   0.62075   0.63335   0.63761   0.64694
 Alpha virt. eigenvalues --    0.65142   0.66359   0.66624   0.67863   0.67989
 Alpha virt. eigenvalues --    0.69604   0.70778   0.71303   0.71765   0.71993
 Alpha virt. eigenvalues --    0.73174   0.73522   0.75030   0.75366   0.75907
 Alpha virt. eigenvalues --    0.75946   0.76837   0.76915   0.77176   0.78809
 Alpha virt. eigenvalues --    0.78936   0.79248   0.80166   0.80516   0.80903
 Alpha virt. eigenvalues --    0.81477   0.83174   0.83327   0.84303   0.84384
 Alpha virt. eigenvalues --    0.85963   0.86954   0.87304   0.88324   0.88653
 Alpha virt. eigenvalues --    0.89620   0.92122   0.92733   0.93345   0.95753
 Alpha virt. eigenvalues --    0.97134   0.97608   1.00390   1.03558   1.05901
 Alpha virt. eigenvalues --    1.10858   1.12034   1.15030   1.16142   1.18224
 Alpha virt. eigenvalues --    1.21957   1.23108   1.24014   1.28925   1.29409
 Alpha virt. eigenvalues --    1.30479   1.30898   1.32194   1.33930   1.36821
 Alpha virt. eigenvalues --    1.38500   1.39602   1.41903   1.43066   1.44948
 Alpha virt. eigenvalues --    1.48723   1.51157   1.52028   1.53235   1.55207
 Alpha virt. eigenvalues --    1.58171   1.62357   1.64652   1.65054   1.67408
 Alpha virt. eigenvalues --    1.67526   1.68557   1.69565   1.72001   1.72298
 Alpha virt. eigenvalues --    1.73554   1.76160   1.77478   1.77614   1.78403
 Alpha virt. eigenvalues --    1.79738   1.80795   1.82984   1.83254   1.84538
 Alpha virt. eigenvalues --    1.86269   1.86944   1.88931   1.89107   1.89593
 Alpha virt. eigenvalues --    1.89896   1.91007   1.92476   1.93799   1.96799
 Alpha virt. eigenvalues --    1.97367   1.98769   1.99758   2.01820   2.02063
 Alpha virt. eigenvalues --    2.02955   2.04455   2.04734   2.05663   2.06187
 Alpha virt. eigenvalues --    2.06672   2.10071   2.10799   2.12295   2.13862
 Alpha virt. eigenvalues --    2.16882   2.18178   2.19654   2.23715   2.24395
 Alpha virt. eigenvalues --    2.26463   2.29207   2.30869   2.31832   2.34485
 Alpha virt. eigenvalues --    2.35858   2.38808   2.39849   2.40068   2.48198
 Alpha virt. eigenvalues --    2.49874   2.50545   2.51877   2.52979   2.55041
 Alpha virt. eigenvalues --    2.57140   2.60010   2.62460   2.65439   2.66847
 Alpha virt. eigenvalues --    2.72075   2.75245   2.78681   2.86261   2.89805
 Alpha virt. eigenvalues --    2.93131   3.06253   3.15610   3.87912   3.90650
 Alpha virt. eigenvalues --    3.93635   3.98647   4.00947   4.06271   4.10232
 Alpha virt. eigenvalues --    4.10445   4.11369   4.17934   4.19101   4.21018
 Alpha virt. eigenvalues --    4.30081   4.35169   4.40017   4.42001   4.56318
          Condensed to atoms (all electrons):
               1          2          3          4          5          6
     1  C    5.288260   0.342927   0.362360   0.363723   0.364964  -0.080791
     2  H    0.342927   0.566892  -0.024280  -0.024352  -0.029881   0.002974
     3  H    0.362360  -0.024280   0.505696  -0.019855  -0.018770   0.000074
     4  H    0.363723  -0.024352  -0.019855   0.500070  -0.019450   0.002952
     5  C    0.364964  -0.029881  -0.018770  -0.019450   4.327974   0.563201
     6  O   -0.080791   0.002974   0.000074   0.002952   0.563201   8.131463
     7  N   -0.117692   0.006810   0.000466   0.003638   0.259838  -0.110164
     8  H   -0.000038   0.001977   0.000232  -0.000170  -0.014510   0.003279
     9  C    0.007399   0.000096  -0.000299  -0.000113  -0.026369   0.009307
    10  C   -0.000046  -0.000040   0.000000   0.000000   0.005931   0.000947
    11  O   -0.000031  -0.000009   0.000000  -0.000000   0.000464  -0.000006
    12  C   -0.001005   0.000042   0.000005   0.000023  -0.005508  -0.031569
    13  C   -0.000000  -0.000000   0.000000  -0.000001   0.000224   0.000271
    14  C   -0.000000   0.000000  -0.000000   0.000000  -0.000006   0.000014
    15  C   -0.000000   0.000000   0.000000  -0.000000   0.000000  -0.000000
    16  N   -0.000000   0.000000  -0.000000   0.000000  -0.000000  -0.000000
    17  C    0.000000   0.000000   0.000000  -0.000000   0.000000  -0.000000
    18  C    0.000000  -0.000000  -0.000000   0.000000   0.000000   0.000000
    19  C    0.000000  -0.000000   0.000000   0.000000  -0.000000   0.000000
    20  H    0.000168  -0.000002   0.000021  -0.000014   0.000282   0.008317
    21  H    0.000862  -0.000080  -0.000005   0.000038   0.000611   0.035381
    22  H    0.000091  -0.000015   0.000001  -0.000007   0.001728   0.000500
    23  H   -0.000000   0.000000  -0.000000   0.000000  -0.000002  -0.000035
    24  H    0.000001  -0.000000   0.000000  -0.000000   0.000025   0.000273
    25  H   -0.000000   0.000000  -0.000000   0.000000  -0.000003  -0.000050
    26  H    0.000000  -0.000000  -0.000000   0.000000   0.000000   0.000002
    27  H   -0.000000   0.000000  -0.000000   0.000000  -0.000000  -0.000000
    28  H   -0.000000   0.000000  -0.000000   0.000000   0.000000  -0.000000
    29  H   -0.000000   0.000000  -0.000000   0.000000  -0.000000  -0.000000
    30  H   -0.000000   0.000000  -0.000000  -0.000000  -0.000000  -0.000000
    31  H    0.000000  -0.000000   0.000000  -0.000000   0.000000   0.000000
    32  H   -0.000000  -0.000000  -0.000000   0.000000  -0.000000   0.000000
    33  H    0.000000  -0.000000   0.000000  -0.000000   0.000000   0.000000
    34  H    0.000000   0.000000   0.000000  -0.000000   0.000000  -0.000000
    35  H    0.000000  -0.000000  -0.000000  -0.000000   0.000000   0.000000
    36  H   -0.000000   0.000000   0.000000   0.000000   0.000000  -0.000000
    37  H    0.000000  -0.000000  -0.000000  -0.000000   0.000000   0.000000
    38  N    0.000000  -0.000000  -0.000000  -0.000000  -0.000079  -0.000003
    39  H    0.000000   0.000000   0.000000   0.000000  -0.000001   0.000002
    40  C   -0.000000  -0.000000  -0.000000   0.000000   0.000001   0.000000
    41  H    0.000000  -0.000000  -0.000000   0.000000  -0.000000   0.000000
    42  H    0.000000  -0.000000  -0.000000  -0.000000  -0.000000   0.000000
    43  H   -0.000000   0.000000   0.000000  -0.000000   0.000000   0.000000
               7          8          9         10         11         12
     1  C   -0.117692  -0.000038   0.007399  -0.000046  -0.000031  -0.001005
     2  H    0.006810   0.001977   0.000096  -0.000040  -0.000009   0.000042
     3  H    0.000466   0.000232  -0.000299   0.000000   0.000000   0.000005
     4  H    0.003638  -0.000170  -0.000113   0.000000  -0.000000   0.000023
     5  C    0.259838  -0.014510  -0.026369   0.005931   0.000464  -0.005508
     6  O   -0.110164   0.003279   0.009307   0.000947  -0.000006  -0.031569
     7  N    7.150376   0.292390   0.248443  -0.025708  -0.008649  -0.048002
     8  H    0.292390   0.371912  -0.044991   0.001144   0.027242   0.003789
     9  C    0.248443  -0.044991   5.115654   0.292743  -0.081987   0.346023
    10  C   -0.025708   0.001144   0.292743   4.374809   0.596273  -0.026874
    11  O   -0.008649   0.027242  -0.081987   0.596273   8.080644  -0.000219
    12  C   -0.048002   0.003789   0.346023  -0.026874  -0.000219   5.149298
    13  C    0.004370  -0.000068  -0.033688  -0.006607   0.000106   0.341995
    14  C   -0.000073   0.000001   0.002949   0.000144   0.000000  -0.031139
    15  C    0.000000  -0.000000  -0.000077  -0.000001  -0.000000   0.002725
    16  N   -0.000000   0.000000   0.000000   0.000000   0.000000  -0.000046
    17  C    0.000000  -0.000000  -0.000000  -0.000000  -0.000000   0.000001
    18  C   -0.000000   0.000000   0.000000  -0.000000  -0.000000   0.000002
    19  C   -0.000000  -0.000000   0.000000   0.000000  -0.000000   0.000003
    20  H   -0.047008   0.003206   0.365844  -0.029613   0.000884  -0.061644
    21  H   -0.012395  -0.000269  -0.020569   0.003025  -0.000074   0.357733
    22  H    0.000900   0.000505  -0.042443  -0.003250   0.000714   0.359102
    23  H   -0.000086  -0.000005  -0.002645   0.002138  -0.000229  -0.037419
    24  H   -0.000016   0.000003  -0.003337  -0.000464  -0.000002  -0.038040
    25  H    0.000001   0.000000   0.000017  -0.000003   0.000000   0.000364
    26  H   -0.000003   0.000000   0.000009  -0.000010  -0.000000  -0.002152
    27  H   -0.000000   0.000000   0.000001  -0.000000   0.000000  -0.000037
    28  H   -0.000000  -0.000000   0.000000   0.000000  -0.000000  -0.000024
    29  H    0.000000  -0.000000  -0.000000  -0.000000  -0.000000  -0.000000
    30  H    0.000000  -0.000000   0.000000  -0.000000   0.000000   0.000001
    31  H   -0.000000   0.000000  -0.000000   0.000000  -0.000000  -0.000000
    32  H   -0.000000   0.000000   0.000000   0.000000  -0.000000  -0.000000
    33  H    0.000000   0.000000  -0.000000   0.000000  -0.000000   0.000000
    34  H    0.000000  -0.000000   0.000000   0.000000   0.000000   0.000000
    35  H    0.000000   0.000000  -0.000000  -0.000000   0.000000  -0.000000
    36  H    0.000000  -0.000000  -0.000000   0.000000   0.000000   0.000000
    37  H   -0.000000   0.000000   0.000000  -0.000000  -0.000000  -0.000009
    38  N    0.003042   0.001165  -0.122227   0.263283  -0.117998   0.006904
    39  H   -0.000087  -0.000052   0.002496  -0.019390   0.004247  -0.004998
    40  C   -0.000063  -0.000035   0.006267  -0.023750   0.005959  -0.000160
    41  H    0.000003   0.000001   0.000048  -0.005481   0.002212  -0.000040
    42  H    0.000000  -0.000000  -0.000039   0.006043   0.000944  -0.000002
    43  H   -0.000004  -0.000008   0.000170  -0.002734   0.008712   0.000000
              13         14         15         16         17         18
     1  C   -0.000000  -0.000000  -0.000000  -0.000000   0.000000   0.000000
     2  H   -0.000000   0.000000   0.000000   0.000000   0.000000  -0.000000
     3  H    0.000000  -0.000000   0.000000  -0.000000   0.000000  -0.000000
     4  H   -0.000001   0.000000  -0.000000   0.000000  -0.000000   0.000000
     5  C    0.000224  -0.000006   0.000000  -0.000000   0.000000   0.000000
     6  O    0.000271   0.000014  -0.000000  -0.000000  -0.000000   0.000000
     7  N    0.004370  -0.000073   0.000000  -0.000000   0.000000  -0.000000
     8  H   -0.000068   0.000001  -0.000000   0.000000  -0.000000   0.000000
[...]
     8  H   -0.000000   0.005440   0.000048   0.001706   0.000006   0.000007
     9  C    0.000000   0.363352  -0.034225  -0.037298  -0.005995  -0.003678
    10  C    0.000000  -0.027331   0.004329  -0.005622   0.002450   0.000020
    11  O    0.000000   0.000452   0.000363   0.005407   0.022669   0.000509
    12  C    0.000002  -0.042914   0.368797   0.367318  -0.033719  -0.038819
    13  C    0.000005  -0.003719  -0.036094  -0.034427   0.366273   0.372417
    14  C   -0.003023   0.000011  -0.005001  -0.005222  -0.034209  -0.040402
    15  C   -0.042523   0.000005   0.000056   0.000144  -0.004488  -0.004298
    16  N    0.241680   0.000000   0.000001   0.000001   0.000025   0.000007
    17  C   -0.049408   0.000000   0.000000   0.000000  -0.000003  -0.000001
    18  C   -0.050078   0.000000  -0.000002   0.000000   0.000001  -0.000011
    19  C    5.105510  -0.000000   0.000000  -0.000003  -0.000009   0.000002
    20  H   -0.000000   0.525961  -0.001527   0.005163  -0.000193   0.005565
    21  H    0.000000  -0.001527   0.576922  -0.034727   0.004867  -0.004685
    22  H   -0.000003   0.005163  -0.034727   0.583602  -0.004108   0.005314
    23  H   -0.000009  -0.000193   0.004867  -0.004108   0.518671  -0.031475
    24  H    0.000002   0.005565  -0.004685   0.005314  -0.031475   0.581837
    25  H   -0.000454   0.000004   0.004153  -0.000462   0.004361  -0.005310
    26  H    0.001875   0.000010  -0.000357   0.004858  -0.004031   0.005173
    27  H   -0.004307   0.000001   0.000005   0.000005   0.004155  -0.000489
    28  H    0.004458  -0.000001   0.000006   0.000005  -0.000277   0.004357
    29  H    0.376970   0.000000  -0.000000   0.000000  -0.000000   0.000000
    30  H    0.378212  -0.000000   0.000001  -0.000004   0.000006   0.000003
    31  H    0.377985   0.000000  -0.000000   0.000000  -0.000000   0.000000
    32  H   -0.002849  -0.000000   0.000000   0.000000   0.000000   0.000000
    33  H   -0.002677   0.000000  -0.000000   0.000000  -0.000002   0.000001
    34  H    0.004272  -0.000000   0.000000  -0.000000   0.000000  -0.000002
    35  H   -0.002623   0.000000   0.000000  -0.000000   0.000000  -0.000000
    36  H    0.004150  -0.000000   0.000000  -0.000000   0.000000  -0.000000
    37  H   -0.002476   0.000000  -0.000003   0.000001   0.000002   0.000007
    38  N    0.000000  -0.001234  -0.000066   0.000211   0.000213   0.000014
    39  H   -0.000000  -0.000477  -0.000008  -0.000030  -0.000017  -0.000003
    40  C    0.000000  -0.000186   0.000002  -0.000010   0.000009  -0.000000
    41  H   -0.000000  -0.000018  -0.000000  -0.000006  -0.000015  -0.000000
    42  H   -0.000000   0.000031  -0.000000   0.000000   0.000001   0.000000
    43  H   -0.000000  -0.000006  -0.000000  -0.000000  -0.000000  -0.000000
              25         26         27         28         29         30
     1  C   -0.000000  -0.000000   0.000000  -0.000000  -0.000000   0.000000
     2  H    0.000000   0.000000  -0.000000   0.000000   0.000000  -0.000000
     3  H   -0.000000  -0.000000   0.000000  -0.000000  -0.000000   0.000000
     4  H    0.000000   0.000000  -0.000000   0.000000   0.000000  -0.000000
     5  C   -0.000001  -0.000000  -0.000000  -0.000000  -0.000000   0.000000
     6  O   -0.000001  -0.000000   0.000000  -0.000000   0.000000  -0.000000
     7  N   -0.000002   0.000000   0.000000   0.000000  -0.000000   0.000000
     8  H    0.000000  -0.000000   0.000000  -0.000000  -0.000000  -0.000000
     9  C   -0.000031   0.000015   0.000003  -0.000000   0.000000   0.000000
    10  C   -0.000006   0.000001  -0.000003   0.000000  -0.000000  -0.000000
    11  O   -0.000008   0.000122  -0.000026   0.000000   0.000000  -0.000000
    12  C   -0.001051  -0.002856  -0.000004  -0.000024  -0.000000   0.000003
    13  C   -0.030672  -0.032774   0.000484  -0.000976  -0.000001  -0.000022
    14  C    0.372472   0.375779  -0.034455  -0.033652   0.000132   0.003474
    15  C   -0.038975  -0.039046   0.377188   0.376836   0.003908  -0.004476
    16  N   -0.002715  -0.002909  -0.035319  -0.035601  -0.029811  -0.028194
    17  C   -0.000037  -0.000027  -0.002780  -0.002766  -0.003105   0.004017
    18  C    0.001824  -0.000545   0.004410  -0.004328  -0.002646  -0.002492
    19  C   -0.000454   0.001875  -0.004307   0.004458   0.376970   0.378212
    20  H    0.000004   0.000010   0.000001  -0.000001   0.000000  -0.000000
    21  H    0.004153  -0.000357   0.000005   0.000006  -0.000000   0.000001
    22  H   -0.000462   0.004858   0.000005   0.000005   0.000000  -0.000004
    23  H    0.004361  -0.004031   0.004155  -0.000277  -0.000000   0.000006
    24  H   -0.005310   0.005173  -0.000489   0.004357   0.000000   0.000003
    25  H    0.563560  -0.036448   0.004635  -0.004502  -0.000022  -0.000007
    26  H   -0.036448   0.556941  -0.004413   0.004530   0.000057   0.003268
    27  H    0.004635  -0.004413   0.509187  -0.029106  -0.000065  -0.000171
    28  H   -0.004502   0.004530  -0.029106   0.514613  -0.000148   0.000019
    29  H   -0.000022   0.000057  -0.000065  -0.000148   0.478659  -0.022593
    30  H   -0.000007   0.003268  -0.000171   0.000019  -0.022593   0.464261
    31  H    0.000046   0.000012   0.003892   0.000005  -0.022702  -0.021565
    32  H    0.000004   0.000004   0.000014   0.000024   0.003744  -0.000000
    33  H    0.000003  -0.000005   0.004391  -0.000561  -0.000425   0.000006
    34  H   -0.000006   0.000003  -0.000522   0.004463   0.000027  -0.000173
    35  H    0.000065  -0.000025  -0.000144  -0.000071   0.003166  -0.000377
    36  H    0.000029   0.000053   0.000004   0.003870  -0.000024   0.000025
    37  H    0.002876   0.000020   0.000020  -0.000155  -0.000372   0.003123
    38  N   -0.000000   0.000000  -0.000000  -0.000000  -0.000000  -0.000000
    39  H    0.000000  -0.000000   0.000000  -0.000000  -0.000000   0.000000
    40  C    0.000000   0.000000  -0.000000   0.000000   0.000000   0.000000
    41  H    0.000000  -0.000000   0.000000  -0.000000  -0.000000   0.000000
    42  H   -0.000000  -0.000000  -0.000000  -0.000000  -0.000000  -0.000000
    43  H   -0.000000  -0.000000   0.000000   0.000000  -0.000000  -0.000000
              31         32         33         34         35         36
     1  C    0.000000  -0.000000   0.000000   0.000000   0.000000   0.000000
     2  H   -0.000000   0.000000  -0.000000  -0.000000  -0.000000  -0.000000
     3  H    0.000000  -0.000000   0.000000   0.000000   0.000000   0.000000
     4  H   -0.000000   0.000000  -0.000000  -0.000000   0.000000  -0.000000
     5  C   -0.000000  -0.000000  -0.000000   0.000000  -0.000000   0.000000
     6  O   -0.000000   0.000000   0.000000   0.000000   0.000000  -0.000000
     7  N    0.000000  -0.000000   0.000000   0.000000   0.000000   0.000000
     8  H    0.000000   0.000000  -0.000000  -0.000000   0.000000  -0.000000
     9  C   -0.000000   0.000000  -0.000000  -0.000000  -0.000000  -0.000000
    10  C    0.000000   0.000000   0.000000  -0.000000  -0.000000   0.000000
    11  O    0.000000   0.000000   0.000000  -0.000000  -0.000000  -0.000000
    12  C    0.000000  -0.000000   0.000000   0.000000  -0.000000   0.000000
    13  C   -0.000022   0.000002  -0.000008  -0.000006  -0.000001  -0.000020
    14  C   -0.000734  -0.000142   0.000026   0.000019   0.000122  -0.000777
    15  C   -0.001693   0.003889  -0.002531  -0.002705   0.003905  -0.001653
    16  N   -0.029334  -0.029151  -0.029291  -0.029295  -0.029796  -0.029493
    17  C   -0.002547   0.375826   0.378103   0.378034  -0.003065  -0.002567
    18  C    0.004138  -0.002862   0.004273  -0.002690   0.377112   0.377866
    19  C    0.377985  -0.002849  -0.002677   0.004272  -0.002623   0.004150
    20  H    0.000000  -0.000000   0.000000  -0.000000   0.000000  -0.000000
    21  H   -0.000000   0.000000  -0.000000   0.000000   0.000000   0.000000
    22  H    0.000000   0.000000   0.000000  -0.000000  -0.000000  -0.000000
    23  H   -0.000000   0.000000  -0.000002   0.000000   0.000000   0.000000
    24  H    0.000000   0.000000   0.000001  -0.000002  -0.000000  -0.000000
    25  H    0.000046   0.000004   0.000003  -0.000006   0.000065   0.000029
    26  H    0.000012   0.000004  -0.000005   0.000003  -0.000025   0.000053
    27  H    0.003892   0.000014   0.004391  -0.000522  -0.000144   0.000004
    28  H    0.000005   0.000024  -0.000561   0.004463  -0.000071   0.003870
    29  H   -0.022702   0.003744  -0.000425   0.000027   0.003166  -0.000024
    30  H   -0.021565  -0.000000   0.000006  -0.000173  -0.000377   0.000025
    31  H    0.469532  -0.000323   0.003127  -0.000025  -0.000023  -0.000175
    32  H   -0.000323   0.477402  -0.022487  -0.022533   0.003720  -0.000320
    33  H    0.003127  -0.022487   0.469546  -0.021946   0.000023  -0.000026
    34  H   -0.000025  -0.022533  -0.021946   0.470633  -0.000427   0.003156
    35  H   -0.000023   0.003720   0.000023  -0.000427   0.478244  -0.022788
    36  H   -0.000175  -0.000320  -0.000026   0.003156  -0.022788   0.471739
    37  H    0.000025  -0.000001  -0.000172   0.000008  -0.022550  -0.021661
    38  N    0.000000   0.000000   0.000000  -0.000000  -0.000000  -0.000000
    39  H   -0.000000   0.000000  -0.000000  -0.000000   0.000000  -0.000000
    40  C   -0.000000  -0.000000   0.000000   0.000000  -0.000000   0.000000
    41  H   -0.000000  -0.000000  -0.000000   0.000000   0.000000   0.000000
    42  H    0.000000  -0.000000   0.000000   0.000000   0.000000  -0.000000
    43  H   -0.000000   0.000000  -0.000000  -0.000000   0.000000  -0.000000
              37         38         39         40         41         42
     1  C    0.000000  -0.000030   0.000101  -0.000000  -0.000000  -0.000000
     2  H   -0.000000   0.000000   0.000024  -0.000000  -0.000000   0.000000
     3  H    0.000000   0.000002  -0.000023  -0.000000   0.000000   0.000000
     4  H   -0.000000  -0.000000   0.000003   0.000000  -0.000000  -0.000000
     5  C    0.000000   0.000299   0.000241   0.000015   0.000001   0.000000
     6  O    0.000000   0.000016  -0.000117   0.000000   0.000000  -0.000000
     7  N    0.000000  -0.006825   0.018685   0.000163  -0.000049  -0.000003
     8  H   -0.000000   0.003512  -0.000735  -0.000142  -0.000007   0.000010
     9  C   -0.000000  -0.122399  -0.003274   0.005644   0.001123  -0.000275
    10  C   -0.000000   0.304468  -0.025901  -0.025292  -0.000533   0.001202
    11  O   -0.000000  -0.092396   0.003227  -0.007126   0.018175   0.000510
    12  C    0.000003   0.004510   0.000529  -0.000106  -0.000013  -0.000004
    13  C   -0.000017  -0.000155  -0.000014  -0.000001   0.000005   0.000000
    14  C    0.003586   0.000001   0.000000  -0.000000  -0.000000   0.000000
    15  C   -0.004551  -0.000000  -0.000000   0.000000  -0.000000   0.000000
    16  N   -0.028141   0.000000   0.000000  -0.000000  -0.000000   0.000000
    17  C    0.004008  -0.000000  -0.000000   0.000000   0.000000  -0.000000
    18  C    0.378301   0.000000  -0.000000  -0.000000   0.000000   0.000000
    19  C   -0.002476   0.000000  -0.000000   0.000000  -0.000000  -0.000000
    20  H    0.000000  -0.001234  -0.000477  -0.000186  -0.000018   0.000031
    21  H   -0.000003  -0.000066  -0.000008   0.000002  -0.000000  -0.000000
    22  H    0.000001   0.000211  -0.000030  -0.000010  -0.000006   0.000000
    23  H    0.000002   0.000213  -0.000017   0.000009  -0.000015   0.000001
    24  H    0.000007   0.000014  -0.000003  -0.000000  -0.000000   0.000000
    25  H    0.002876  -0.000000   0.000000   0.000000   0.000000  -0.000000
    26  H    0.000020   0.000000  -0.000000   0.000000  -0.000000  -0.000000
    27  H    0.000020  -0.000000   0.000000  -0.000000   0.000000  -0.000000
    28  H   -0.000155  -0.000000  -0.000000   0.000000  -0.000000  -0.000000
    29  H   -0.000372  -0.000000  -0.000000   0.000000  -0.000000  -0.000000
    30  H    0.003123  -0.000000   0.000000   0.000000   0.000000  -0.000000
    31  H    0.000025   0.000000  -0.000000  -0.000000  -0.000000   0.000000
    32  H   -0.000001   0.000000   0.000000  -0.000000  -0.000000  -0.000000
    33  H   -0.000172   0.000000  -0.000000   0.000000  -0.000000   0.000000
    34  H    0.000008  -0.000000  -0.000000   0.000000   0.000000   0.000000
    35  H   -0.022550  -0.000000   0.000000  -0.000000   0.000000   0.000000
    36  H   -0.021661  -0.000000  -0.000000   0.000000   0.000000  -0.000000
    37  H    0.464135  -0.000000   0.000000   0.000000   0.000000   0.000000
    38  N   -0.000000   7.047838   0.301531   0.260652  -0.039287  -0.040623
    39  H    0.000000   0.301531   0.390983  -0.028992   0.003600  -0.001243
    40  C    0.000000   0.260652  -0.028992   4.968126   0.377848   0.383582
    41  H    0.000000  -0.039287   0.003600   0.377848   0.482329  -0.025082
    42  H    0.000000  -0.040623  -0.001243   0.383582  -0.025082   0.544545
    43  H    0.000000  -0.038863  -0.000377   0.382103  -0.023565  -0.036837
              43
     1  C    0.000000
     2  H   -0.000000
     3  H   -0.000000
     4  H    0.000000
     5  C   -0.000001
     6  O    0.000000
     7  N    0.000011
     8  H   -0.000034
     9  C   -0.000024
    10  C    0.001111
    11  O    0.000389
    12  C    0.000006
    13  C   -0.000000
    14  C   -0.000000
    15  C   -0.000000
    16  N    0.000000
    17  C   -0.000000
    18  C    0.000000
    19  C   -0.000000
    20  H   -0.000006
    21  H   -0.000000
    22  H   -0.000000
    23  H   -0.000000
    24  H   -0.000000
    25  H   -0.000000
    26  H   -0.000000
    27  H    0.000000
    28  H    0.000000
    29  H   -0.000000
    30  H   -0.000000
    31  H   -0.000000
    32  H    0.000000
    33  H   -0.000000
    34  H   -0.000000
    35  H    0.000000
    36  H   -0.000000
    37  H    0.000000
    38  N   -0.038863
    39  H   -0.000377
    40  C    0.382103
    41  H   -0.023565
    42  H   -0.036837
    43  H    0.545465
 Mulliken charges:
               1
     1  C   -0.539532
     2  H    0.153088
     3  H    0.203716
     4  H    0.195230
     5  C    0.595731
     6  O   -0.498850
     7  N   -0.633734
     8  H    0.331463
     9  C   -0.048654
    10  C    0.593107
    11  O   -0.533934
    12  C   -0.257442
    13  C   -0.287473
    14  C   -0.310735
    15  C   -0.154587
    16  N   -0.369378
    17  C   -0.329745
    18  C   -0.334271
    19  C   -0.334688
    20  H    0.200340
    21  H    0.155556
    22  H    0.147850
    23  H    0.194720
    24  H    0.153727
    25  H    0.166678
    26  H    0.170711
    27  H    0.203412
    28  H    0.198981
    29  H    0.215251
    30  H    0.223656
    31  H    0.220383
    32  H    0.216039
    33  H    0.220631
    34  H    0.219715
    35  H    0.215532
    36  H    0.218613
    37  H    0.223984
    38  N   -0.581389
    39  H    0.342288
    40  C   -0.316288
    41  H    0.205496
    42  H    0.174184
    43  H    0.170622
 Sum of Mulliken charges =   1.00000
 Mulliken charges with hydrogens summed into heavy atoms:
               1
     1  C    0.012502
     5  C    0.595731
     6  O   -0.498850
     7  N   -0.302271
     9  C    0.151685
    10  C    0.593107
    11  O   -0.533934
    12  C    0.045965
    13  C    0.060973
    14  C    0.026653
    15  C    0.247807
    16  N   -0.369378
    17  C    0.326641
    18  C    0.323857
    19  C    0.324601
    38  N   -0.239101
    40  C    0.234014
 Electronic spatial extent (au):  <R**2>=           7655.1401
 Charge=              1.0000 electrons
 Dipole moment (field-independent basis, Debye):
    X=            -14.4563    Y=             -0.2175    Z=              1.8947  Tot=             14.5816
 Quadrupole moment (field-independent basis, Debye-Ang):
   XX=             24.6871   YY=           -100.1037   ZZ=            -97.6915
   XY=              5.8047   XZ=              6.8656   YZ=             -8.0802
 Traceless Quadrupole moment (field-independent basis, Debye-Ang):
   XX=             82.3898   YY=            -42.4010   ZZ=            -39.9888
   XY=              5.8047   XZ=              6.8656   YZ=             -8.0802
 Octapole moment (field-independent basis, Debye-Ang**2):
  XXX=           -354.8343  YYY=              7.2933  ZZZ=              3.2950  XYY=             -0.2140
  XXY=             11.5417  XXZ=             13.9270  XZZ=            -26.3164  YZZ=              6.7219
  YYZ=             11.3809  XYZ=            -21.6539
 Hexadecapole moment (field-independent basis, Debye-Ang**3):
 XXXX=          -4354.2667 YYYY=          -1765.6188 ZZZZ=           -377.7307 XXXY=             56.4198
 XXXZ=             58.1325 YYYX=             66.0389 YYYZ=            -50.8548 ZZZX=             11.6624
 ZZZY=              3.0290 XXYY=          -1270.4270 XXZZ=          -1197.8958 YYZZ=           -383.8009
 XXYZ=            -56.3397 YYXZ=             30.7852 ZZXY=             11.9427
 N-N= 1.268943072740D+03 E-N=-4.351320960389D+03  KE= 7.799035134061D+02
 No NMR shielding tensors so no spin-rotation constants.
 Leave Link  601 at Mon Jun  1 09:19:38 2026, MaxMem=    67108864 cpu:               1.9 elap:               0.1
 (Enter /software/local/apps/gaussian-16.0/g16/l9999.exe)
 Unable to Open any file for archive entry.
 1\1\GINC-BP1-COMPUTE077\FOpt\RB3LYP\6-31G(d)\C12H26N3O2(1+)\XV24323\01
 -Jun-2026\0\\#P b3lyp/6-31g* opt\\KM3 b3lyp/6-31g* geometry optimisati
 on\\1,1\C,19.9956478992,3.48961086,6.6549676355\H,20.9192840672,3.0023
 433886,6.9813018821\H,19.3453655744,2.7440142994,6.1881856922\H,19.466
 4166896,3.8753815212,7.5321262113\C,20.2163721463,4.6249255394,5.67221
 54316\O,19.2949881204,5.2338797044,5.1472415997\N,21.5353097425,4.9189
 45171,5.3806013084\H,22.2556981483,4.5499427989,5.98863011\C,21.861954
 6404,6.0792111727,4.5576867575\C,23.1768794687,5.8565898702,3.77944373
 76\O,23.9535688122,6.7844461844,3.5592883356\C,21.8830337082,7.3969630
 736,5.3591050044\C,21.7337936209,8.6356939505,4.4650643217\C,21.796540
 4951,9.9462862186,5.2719170866\C,21.661981766,11.1292748695,4.31773826
 36\N,21.7394847708,12.5330225936,4.9425690831\C,21.5766557406,13.54479
 82918,3.8358433957\C,20.6376054741,12.733718322,5.9503404778\C,23.0745
 309583,12.7518835586,5.6065247921\H,21.0463597883,6.140663874,3.826283
 9335\H,21.0515805753,7.3598571788,6.0721640445\H,22.8175137539,7.46116
 04972,5.9301431542\H,22.5329948492,8.6225948774,3.7184764727\H,20.7741
 850586,8.5814371825,3.932127197\H,20.9954489539,9.9522837208,6.0207455
 272\H,22.7526920624,9.9837214821,5.8068246856\H,22.4548985532,11.10538
 14461,3.5647358861\H,20.6997599034,11.0992996189,3.7982039117\H,23.121
 4056537,13.7811008881,5.9659488314\H,23.1795070802,12.0631984793,6.443
 3697939\H,23.8651041173,12.5752305539,4.8754865059\H,21.6315366201,14.
 5484642831,4.2604594854\H,22.3762146355,13.4036281379,3.1072276101\H,2
 0.6073206595,13.3942392549,3.3585422217\H,20.6777266142,13.7623142083,
 6.3124001602\H,19.6780476818,12.5460564247,5.4658511299\H,20.777735067
 8,12.0436395689,6.7809573463\N,23.3780704684,4.5859477352,3.3501077461
 \H,22.6667286558,3.9010001732,3.5677872602\C,24.5131720642,4.195756932
 2,2.5276202996\H,25.1845095892,5.0522552442,2.4602182366\H,24.19075199
 8,3.9124915571,1.5192253613\H,25.045623753,3.3523452927,2.9793020726\\
 Version=ES64L-G16RevC.01\State=1-A\HF=-787.4488572\RMSD=9.722e-09\RMSF
 =2.906e-06\Dipole=0.2537055,5.6619841,0.8882152\Quadrupole=-36.3149229
 ,60.9475464,-24.6326235,-8.3785939,-1.3544324,1.8911695\PG=C01 [X(C12H
 26N3O2)]\\@
 The archive entry for this job was punched.


 KNOWING HOW CONTENTED, FREE, AND JOYFUL IS LIFE IN
 THE REALMS OF SCIENCE, ONE FERVENTLY WISHES THAT
 MANY WOULD ENTER HER PORTALS.
   --  DMITRI IVANOVICH MENDELEEV
 "FIRST PRINCIPLES OF CHEMISTRY", LONGMANS, GREEN,
 AND CO.  LONDON, 1891
 Job cpu time:       0 days  7 hours 38 minutes 24.8 seconds.
 Elapsed time:       0 days  0 hours 29 minutes 15.1 seconds.
 File lengths (MBytes):  RWF=    176 Int=      0 D2E=      0 Chk=     24 Scr=     16
 Normal termination of Gaussian 16 at Mon Jun  1 09:19:39 2026.
