 Entering Gaussian System, Link 0=g16
 Initial command:
 /software/local/apps/gaussian-16.0/g16/l1.exe "KM3/nterm/Gau-3298345.inp" -scrdir="KM3/nterm/"
 Entering Link 1 = /software/local/apps/gaussian-16.0/g16/l1.exe PID=   3298346.
  
 Copyright (c) 1988-2019, Gaussian, Inc.  All Rights Reserved.
  
 This is part of the Gaussian(R) 16 program.  It is based on
 the Gaussian(R) 09 system (copyright 2009, Gaussian, Inc.),
 the Gaussian(R) 03 system (copyright 2003, Gaussian, Inc.),
 the Gaussian(R) 98 system (copyright 1998, Gaussian, Inc.),
 the Gaussian(R) 94 system (copyright 1995, Gaussian, Inc.),
 the Gaussian 92(TM) system (copyright 1992, Gaussian, Inc.),
 the Gaussian 90(TM) system (copyright 1990, Gaussian, Inc.),
 the Gaussian 88(TM) system (copyright 1988, Gaussian, Inc.),
 the Gaussian 86(TM) system (copyright 1986, Carnegie Mellon
 University), and the Gaussian 82(TM) system (copyright 1983,
 Carnegie Mellon University). Gaussian is a federally registered
 trademark of Gaussian, Inc.
  
 This software contains proprietary and confidential information,
 including trade secrets, belonging to Gaussian, Inc.
  
 This software is provided under written license and may be
 used, copied, transmitted, or stored only in accord with that
 written license.
  
 The following legend is applicable only to US Government
 contracts under FAR:
  
                    RESTRICTED RIGHTS LEGEND
  
 Use, reproduction and disclosure by the US Government is
 subject to restrictions as set forth in subparagraphs (a)
 and (c) of the Commercial Computer Software - Restricted
 Rights clause in FAR 52.227-19.
  
 Gaussian, Inc.
 340 Quinnipiac St., Bldg. 40, Wallingford CT 06492
  
  
 ---------------------------------------------------------------
 Warning -- This program may not be used in any manner that
 competes with the business of Gaussian, Inc. or will provide
 assistance to any competitor of Gaussian, Inc.  The licensee
 of this program is prohibited from giving any competitor of
 Gaussian, Inc. access to this program.  By using this program,
 the user acknowledges that Gaussian, Inc. is engaged in the
 business of creating and licensing software in the field of
 computational chemistry and represents and warrants to the
 licensee that it is not a competitor of Gaussian, Inc. and that
 it will not use this program in any manner prohibited above.
 ---------------------------------------------------------------
  

 Cite this work as:
 Gaussian 16, Revision C.01,
 M. J. Frisch, G. W. Trucks, H. B. Schlegel, G. E. Scuseria, 
 M. A. Robb, J. R. Cheeseman, G. Scalmani, V. Barone, 
 G. A. Petersson, H. Nakatsuji, X. Li, M. Caricato, A. V. Marenich, 
 J. Bloino, B. G. Janesko, R. Gomperts, B. Mennucci, H. P. Hratchian, 
 J. V. Ortiz, A. F. Izmaylov, J. L. Sonnenberg, D. Williams-Young, 
 F. Ding, F. Lipparini, F. Egidi, J. Goings, B. Peng, A. Petrone, 
 T. Henderson, D. Ranasinghe, V. G. Zakrzewski, J. Gao, N. Rega, 
 G. Zheng, W. Liang, M. Hada, M. Ehara, K. Toyota, R. Fukuda, 
 J. Hasegawa, M. Ishida, T. Nakajima, Y. Honda, O. Kitao, H. Nakai, 
 T. Vreven, K. Throssell, J. A. Montgomery, Jr., J. E. Peralta, 
 F. Ogliaro, M. J. Bearpark, J. J. Heyd, E. N. Brothers, K. N. Kudin, 
 V. N. Staroverov, T. A. Keith, R. Kobayashi, J. Normand, 
 K. Raghavachari, A. P. Rendell, J. C. Burant, S. S. Iyengar, 
 J. Tomasi, M. Cossi, J. M. Millam, M. Klene, C. Adamo, R. Cammi, 
 J. W. Ochterski, R. L. Martin, K. Morokuma, O. Farkas, 
 J. B. Foresman, and D. J. Fox, Gaussian, Inc., Wallingford CT, 2019.
 
 ******************************************
 Gaussian 16:  ES64L-G16RevC.01  3-Jul-2019
                31-May-2026 
 ******************************************
 %nprocshared=16
 Will use up to   16 processors via shared memory.
 %mem=512MB
 %chk=KM3_nterm_hf.chk
 -------------------------------------------
 #p hf/6-31g(d) SCF=Tight Pop=MK IOp(6/33=2)
 -------------------------------------------
 1/38=1,172=1/1;
 2/12=2,17=6,18=5,40=1/2;
 3/5=1,6=6,7=1,11=9,25=1,30=1/1,2,3;
 4//1;
 5/5=2,32=2,38=5/2;
 6/7=2,8=2,9=2,10=2,15=8,20=1,28=1,33=2/1,2;
 99/5=1,9=1/99;
 Leave Link    1 at Sun May 31 21:50:01 2026, MaxMem=    67108864 cpu:               3.4 elap:               0.2
 (Enter /software/local/apps/gaussian-16.0/g16/l101.exe)
 ---------
 KM3_nterm
 ---------
 Symbolic Z-matrix:
 Charge =  2 Multiplicity = 1
 N                     3.50485  -2.11896  -0.05079 
 C                     2.58858  -1.01209  -0.54734 
 C                     3.22207   0.24446   0.11821 
 O                     3.75589   0.06589   1.21546 
 C                     1.16035  -1.29911  -0.0363 
 C                     0.10761  -0.26493  -0.47787 
 C                    -1.29748  -0.63442   0.04956 
 C                    -2.3228    0.41764  -0.38791 
 N                    -3.76962   0.19205   0.06356 
 C                    -4.60261   1.33827  -0.47151 
 C                    -4.32113  -1.10074  -0.48942 
 C                    -3.8787    0.18199   1.57009 
 H                     3.83289  -1.75792   0.88117 
 H                     2.63393  -0.99927  -1.63961 
 H                     0.85945  -2.29128  -0.39992 
 H                     1.19446  -1.34507   1.05999 
 H                     0.388     0.72858  -0.10875 
 H                     0.08371  -0.20726  -1.57453 
 H                    -1.57274  -1.62395  -0.33232 
 H                    -1.25749  -0.70319   1.1424 
 H                    -2.04903   1.40381  -0.00188 
 H                    -2.36603   0.4824   -1.47905 
 H                     3.04208  -3.02869   0.04882 
 H                     4.33377  -2.24426  -0.64454 
 H                    -4.9332    0.11268   1.84081 
 H                    -3.344    -0.67895   1.96955 
 H                    -3.4567    1.10861   1.96268 
 H                    -5.63805   1.19447  -0.16018 
 H                    -4.21958   2.27562  -0.0655 
 H                    -4.53979   1.34512  -1.56064 
 H                    -5.37542  -1.17206  -0.21842 
 H                    -4.21871  -1.09427  -1.57586 
 H                    -3.77845  -1.94242  -0.06071 
 N                     3.11965   1.411    -0.52808 
 H                     2.75534   1.41747  -1.47287 
 C                     3.69265   2.66211  -0.00982 
 H                     2.95158   3.46157  -0.0796 
 H                     4.58086   2.93729  -0.58559 
 H                     3.97055   2.50619   1.03188 
 
 ITRead=  0  0  0  0  0  0  0  0  0  0  0  0  0  0  0  0  0  0  0  0
 ITRead=  0  0  0  0  0  0  0  0  0  0  0  0  0  0  0  0  0  0  0
 MicOpt= -1 -1 -1 -1 -1 -1 -1 -1 -1 -1 -1 -1 -1 -1 -1 -1 -1 -1 -1 -1
 MicOpt= -1 -1 -1 -1 -1 -1 -1 -1 -1 -1 -1 -1 -1 -1 -1 -1 -1 -1 -1
 NAtoms=     39 NQM=       39 NQMF=       0 NMMI=      0 NMMIF=      0
                NMic=       0 NMicF=      0.
                    Isotopes and Nuclear Properties:
 (Nuclear quadrupole moments (NQMom) in fm**2, nuclear magnetic moments (NMagM)
  in nuclear magnetons)

  Atom         1           2           3           4           5           6           7           8           9          10
 IAtWgt=          14          12          12          16          12          12          12          12          14          12
 AtmWgt=  14.0030740  12.0000000  12.0000000  15.9949146  12.0000000  12.0000000  12.0000000  12.0000000  14.0030740  12.0000000
 NucSpn=           2           0           0           0           0           0           0           0           2           0
 AtZEff=  -0.0000000  -0.0000000  -0.0000000  -0.0000000  -0.0000000  -0.0000000  -0.0000000  -0.0000000  -0.0000000  -0.0000000
 NQMom=    2.0440000   0.0000000   0.0000000   0.0000000   0.0000000   0.0000000   0.0000000   0.0000000   2.0440000   0.0000000
 NMagM=    0.4037610   0.0000000   0.0000000   0.0000000   0.0000000   0.0000000   0.0000000   0.0000000   0.4037610   0.0000000
 AtZNuc=   7.0000000   6.0000000   6.0000000   8.0000000   6.0000000   6.0000000   6.0000000   6.0000000   7.0000000   6.0000000

  Atom        11          12          13          14          15          16          17          18          19          20
 IAtWgt=          12          12           1           1           1           1           1           1           1           1
 AtmWgt=  12.0000000  12.0000000   1.0078250   1.0078250   1.0078250   1.0078250   1.0078250   1.0078250   1.0078250   1.0078250
 NucSpn=           0           0           1           1           1           1           1           1           1           1
 AtZEff=  -0.0000000  -0.0000000  -0.0000000  -0.0000000  -0.0000000  -0.0000000  -0.0000000  -0.0000000  -0.0000000  -0.0000000
 NQMom=    0.0000000   0.0000000   0.0000000   0.0000000   0.0000000   0.0000000   0.0000000   0.0000000   0.0000000   0.0000000
 NMagM=    0.0000000   0.0000000   2.7928460   2.7928460   2.7928460   2.7928460   2.7928460   2.7928460   2.7928460   2.7928460
 AtZNuc=   6.0000000   6.0000000   1.0000000   1.0000000   1.0000000   1.0000000   1.0000000   1.0000000   1.0000000   1.0000000

  Atom        21          22          23          24          25          26          27          28          29          30
 IAtWgt=           1           1           1           1           1           1           1           1           1           1
 AtmWgt=   1.0078250   1.0078250   1.0078250   1.0078250   1.0078250   1.0078250   1.0078250   1.0078250   1.0078250   1.0078250
 NucSpn=           1           1           1           1           1           1           1           1           1           1
 AtZEff=  -0.0000000  -0.0000000  -0.0000000  -0.0000000  -0.0000000  -0.0000000  -0.0000000  -0.0000000  -0.0000000  -0.0000000
 NQMom=    0.0000000   0.0000000   0.0000000   0.0000000   0.0000000   0.0000000   0.0000000   0.0000000   0.0000000   0.0000000
 NMagM=    2.7928460   2.7928460   2.7928460   2.7928460   2.7928460   2.7928460   2.7928460   2.7928460   2.7928460   2.7928460
 AtZNuc=   1.0000000   1.0000000   1.0000000   1.0000000   1.0000000   1.0000000   1.0000000   1.0000000   1.0000000   1.0000000

  Atom        31          32          33          34          35          36          37          38          39
 IAtWgt=           1           1           1          14           1          12           1           1           1
 AtmWgt=   1.0078250   1.0078250   1.0078250  14.0030740   1.0078250  12.0000000   1.0078250   1.0078250   1.0078250
 NucSpn=           1           1           1           2           1           0           1           1           1
 AtZEff=  -0.0000000  -0.0000000  -0.0000000  -0.0000000  -0.0000000  -0.0000000  -0.0000000  -0.0000000  -0.0000000
 NQMom=    0.0000000   0.0000000   0.0000000   2.0440000   0.0000000   0.0000000   0.0000000   0.0000000   0.0000000
 NMagM=    2.7928460   2.7928460   2.7928460   0.4037610   2.7928460   0.0000000   2.7928460   2.7928460   2.7928460
 AtZNuc=   1.0000000   1.0000000   1.0000000   7.0000000   1.0000000   6.0000000   1.0000000   1.0000000   1.0000000
 Leave Link  101 at Sun May 31 21:50:01 2026, MaxMem=    67108864 cpu:               1.9 elap:               0.2
 (Enter /software/local/apps/gaussian-16.0/g16/l202.exe)
                          Input orientation:                          
 ---------------------------------------------------------------------
 Center     Atomic      Atomic             Coordinates (Angstroms)
 Number     Number       Type             X           Y           Z
 ---------------------------------------------------------------------
      1          7           0        3.504854   -2.118964   -0.050786
      2          6           0        2.588578   -1.012095   -0.547342
      3          6           0        3.222066    0.244457    0.118206
      4          8           0        3.755888    0.065890    1.215463
      5          6           0        1.160350   -1.299105   -0.036304
      6          6           0        0.107611   -0.264925   -0.477870
      7          6           0       -1.297475   -0.634415    0.049559
      8          6           0       -2.322795    0.417638   -0.387911
      9          7           0       -3.769621    0.192050    0.063558
     10          6           0       -4.602608    1.338266   -0.471506
     11          6           0       -4.321129   -1.100741   -0.489419
     12          6           0       -3.878699    0.181986    1.570090
     13          1           0        3.832890   -1.757921    0.881165
     14          1           0        2.633930   -0.999265   -1.639613
     15          1           0        0.859450   -2.291278   -0.399917
     16          1           0        1.194457   -1.345067    1.059991
     17          1           0        0.387998    0.728582   -0.108754
     18          1           0        0.083707   -0.207261   -1.574533
     19          1           0       -1.572737   -1.623951   -0.332316
     20          1           0       -1.257494   -0.703185    1.142403
     21          1           0       -2.049034    1.403812   -0.001879
     22          1           0       -2.366026    0.482399   -1.479045
     23          1           0        3.042082   -3.028693    0.048816
     24          1           0        4.333765   -2.244256   -0.644539
     25          1           0       -4.933196    0.112679    1.840814
     26          1           0       -3.343998   -0.678954    1.969549
     27          1           0       -3.456695    1.108613    1.962675
     28          1           0       -5.638052    1.194465   -0.160183
     29          1           0       -4.219583    2.275623   -0.065500
     30          1           0       -4.539795    1.345120   -1.560640
     31          1           0       -5.375418   -1.172059   -0.218417
     32          1           0       -4.218709   -1.094271   -1.575856
     33          1           0       -3.778454   -1.942416   -0.060710
     34          7           0        3.119655    1.410997   -0.528081
     35          1           0        2.755339    1.417474   -1.472868
     36          6           0        3.692645    2.662109   -0.009815
     37          1           0        2.951584    3.461570   -0.079603
     38          1           0        4.580858    2.937291   -0.585588
     39          1           0        3.970549    2.506190    1.031875
 ---------------------------------------------------------------------
                    Distance matrix (angstroms):
                    1          2          3          4          5
     1  N    0.000000
     2  C    1.520292   0.000000
     3  C    2.386270   1.556658   0.000000
     4  O    2.537714   2.373214   1.233217   0.000000
     5  C    2.483763   1.543817   2.580141   3.188565   0.000000
     6  C    3.893728   2.591966   3.211636   4.035683   1.540379
     7  C    5.027556   3.949727   4.604713   5.233186   2.547565
     8  C    6.364707   5.117728   5.570604   6.296421   3.899120
     9  N    7.633600   6.499989   6.992097   7.614203   5.151517
    10  C    8.823853   7.565917   7.922733   8.621442   6.352701
    11  C    7.904125   6.910518   7.686258   8.337017   5.503751
    12  C    7.901801   6.909053   7.247947   7.643700   5.492372
    13  H    1.051899   2.035977   2.228167   1.855794   2.862644
    14  H    2.129931   1.093287   2.232191   3.247276   2.198168
    15  H    2.673901   2.155905   3.504334   4.068789   1.098709
    16  H    2.677812   2.153593   2.743127   2.928464   1.097788
    17  H    4.222164   2.839871   2.884065   3.679048   2.171012
    18  H    4.204838   2.824404   3.594261   4.619914   2.171965
    19  H    5.109425   4.211549   5.165661   5.800468   2.768197
    20  H    5.109607   4.212236   4.691851   5.072555   2.755075
    21  H    6.577083   5.257526   5.398428   6.080220   4.196080
    22  H    6.578316   5.258297   5.816752   6.701618   4.206018
    23  H    1.025517   2.151218   3.278829   3.383346   2.557271
    24  H    1.027295   2.138538   2.830432   3.021643   3.366574
    25  H    8.930793   7.971542   8.336249   8.711684   6.530544
    26  H    7.284378   6.452998   6.884283   7.178567   4.969626
    27  H    7.933123   6.880619   6.982455   7.325773   5.577645
    28  H    9.725405   8.526209   8.915251   9.560972   7.242341
    29  H    8.887043   7.575772   7.716056   8.374481   6.459351
    30  H    8.887965   7.576077   8.017261   8.840901   6.465847
    31  H    8.932187   7.972391   8.719895   9.325732   6.539539
    32  H    7.939097   6.885038   7.747720   8.528284   5.598790
    33  H    7.285454   6.453015   7.336328   7.901153   4.980585
    34  N    3.582850   2.480683   1.337531   2.292172   3.380144
    35  H    3.884647   2.605228   2.031088   3.170962   3.462298
    36  C    4.784935   3.873974   2.466349   2.871526   4.701535
    37  H    5.607967   4.512675   3.234518   3.722196   5.086691
    38  H    5.197068   4.423606   3.097256   3.488453   5.472535
    39  H    4.772953   4.096596   2.551559   2.456593   4.849587
                    6          7          8          9         10
     6  C    0.000000
     7  C    1.545630   0.000000
     8  C    2.526036   1.532800   0.000000
     9  N    3.941434   2.606673   1.532325   0.000000
    10  C    4.975583   3.884184   2.460100   1.514586   0.000000
    11  C    4.506935   3.106516   2.511796   1.510382   2.455261
    12  C    4.503836   3.105035   2.511999   1.510509   2.455431
    13  H    4.237183   5.317375   6.651020   7.891074   9.087008
    14  H    2.875968   4.294457   5.305044   6.732421   7.693894
    15  H    2.162740   2.756728   4.179121   5.273521   6.558414
    16  H    2.170935   2.781317   4.192208   5.291283   6.568997
    17  H    1.096321   2.173394   2.742811   4.195635   5.040779
    18  H    1.098438   2.174350   2.754963   4.206058   5.056369
    19  H    2.166035   1.095801   2.175721   2.877651   4.239602
    20  H    2.163531   1.095735   2.175539   2.876827   4.238161
    21  H    2.768098   2.172983   1.093849   2.105485   2.597227
    22  H    2.771232   2.173869   1.093909   2.105708   2.598065
    23  H    4.065333   4.956241   6.391387   7.534766   8.819430
    24  H    4.669680   5.897815   7.173655   8.491281   9.629287
    25  H    5.561350   4.121312   3.445926   2.125758   2.637835
    26  H    4.251457   2.806528   2.793383   2.138365   3.407642
    27  H    4.532896   3.370518   2.699709   2.131820   2.700203
    28  H    5.936614   4.714807   3.412660   2.132119   1.090754
    29  H    5.034783   4.125564   2.674670   2.135509   1.090957
    30  H    5.036171   4.126008   2.674062   2.135593   1.090965
    31  H    5.563615   4.121952   3.445921   2.125767   2.638754
    32  H    4.539871   3.374470   2.700291   2.131661   2.698926
    33  H    4.253175   2.806828   2.792106   2.138099   3.407471
    34  N    3.447266   4.901879   5.534137   7.021253   7.722813
    35  H    3.291041   4.790964   5.288123   6.814497   7.426196
    36  C    4.651782   5.980961   6.431650   7.860788   8.412903
    37  H    4.704632   5.903243   6.097512   7.475617   7.856706
    38  H    5.502339   6.907626   7.351745   8.814093   9.322336
    39  H    4.988056   6.211314   6.781152   8.136530   8.781983
                   11         12         13         14         15
    11  C    0.000000
    12  C    2.466315   0.000000
    13  H    8.294481   7.981633   0.000000
    14  H    7.050255   7.356078   2.892643   0.000000
    15  H    5.316370   5.696316   3.281309   2.520897   0.000000
    16  H    5.734288   5.322500   2.676519   3.078883   1.771687
    17  H    5.066281   4.617574   4.362329   3.220744   3.070276
    18  H    4.623674   5.073542   4.742507   2.671169   2.514881
    19  H    2.802158   3.492566   5.541777   4.449192   2.522980
    20  H    3.493816   2.799493   5.205067   4.792750   3.063045
    21  H    3.416562   2.704001   6.735974   5.512450   4.719259
    22  H    2.703353   3.416965   7.001156   5.217343   4.388792
    23  H    7.630437   7.779457   1.712613   2.671321   2.347131
    24  H    8.731488   8.845100   1.677847   2.330153   3.483234
    25  H    2.697592   1.090898   9.014673   8.403046   6.659927
    26  H    2.679405   1.089353   7.338697   6.990298   5.087527
    27  H    3.411929   1.091260   7.907258   7.383451   5.980820
    28  H    2.666581   2.667261   9.974955   8.684863   7.377358
    29  H    3.404387   2.678558   9.055825   7.757149   6.838494
    30  H    2.679098   3.404614   9.257058   7.547497   6.612300
    31  H    1.090896   2.696732   9.292215   8.136296   6.337127
    32  H    1.091273   3.411952   8.444266   6.853594   5.348211
    33  H    1.089360   2.680045   7.671618   6.670917   4.663359
    34  N    7.853381   7.408762   3.540723   2.698295   4.339561
    35  H    7.575287   7.402465   4.097038   2.425525   4.301216
    36  C    8.866207   8.122337   4.511117   4.145212   5.719722
    37  H    8.595056   7.754349   5.379857   4.736410   6.129836
    38  H    9.775496   9.154385   4.975524   4.516411   6.420380
    39  H    9.169308   8.203798   4.268994   4.605607   5.894460
                   16         17         18         19         20
    16  H    0.000000
    17  H    2.513237   0.000000
    18  H    3.077188   1.765475   0.000000
    19  H    3.110250   3.070647   2.508769   0.000000
    20  H    2.535916   2.514557   3.070261   1.766914   0.000000
    21  H    4.382253   2.531103   3.101190   3.082758   2.524946
    22  H    4.739554   3.085928   2.546751   2.526065   3.083252
    23  H    2.696440   4.602837   4.398605   4.838917   5.009019
    24  H    3.683642   4.969297   4.803877   5.947187   6.068792
    25  H    6.346876   5.700461   6.077522   4.362461   3.829386
    26  H    4.676385   4.497588   4.952996   3.054336   2.244606
    27  H    5.335597   4.383709   5.174728   4.035243   2.965121
    28  H    7.390617   6.044251   6.058362   4.949736   4.948444
    29  H    6.609686   4.860556   5.192321   4.720557   4.371075
    30  H    6.854667   5.174093   4.877176   4.373511   4.719692
    31  H    6.695335   6.069714   5.707182   3.831131   4.362221
    32  H    6.026023   5.166907   4.392900   2.971215   4.038648
    33  H    5.132508   4.949329   4.496522   2.245078   3.055882
    34  N    3.718097   2.846660   3.595942   5.591760   5.140011
    35  H    4.059970   2.817744   3.128533   5.411411   5.238288
    36  C    4.841786   3.830014   4.868887   6.796953   6.095628
    37  H    5.243084   3.747272   4.890793   6.811451   6.046058
    38  H    5.702125   4.762966   5.575893   7.663929   7.094038
    39  H    4.747595   4.158797   5.409595   7.046070   6.135531
                   21         22         23         24         25
    21  H    0.000000
    22  H    1.769606   0.000000
    23  H    6.750491   6.626444   0.000000
    24  H    7.379806   7.281363   1.662687   0.000000
    25  H    3.657996   4.212899   8.756971   9.879711   0.000000
    26  H    3.146645   3.768019   7.070538   8.260246   1.780114
    27  H    2.434774   3.664306   7.938152   8.873024   1.785158
    28  H    3.598602   3.598971   9.655230  10.559192   2.381401
    29  H    2.339954   2.940992   8.993365   9.691458   2.970118
    30  H    2.938889   2.340132   8.899744   9.615765   3.639171
    31  H    4.212699   3.658258   8.623967   9.777496   2.467092
    32  H    3.664057   2.434686   7.687694   8.679552   3.693353
    33  H    3.767174   3.144257   6.907366   8.138800   3.028636
    34  N    5.195410   5.644406   4.477686   3.853375   8.493863
    35  H    5.024539   5.206033   4.708094   4.072570   8.473284
    36  C    5.877946   6.604337   5.728167   4.988620   9.183112
    37  H    5.408012   6.253869   6.492164   5.897968   8.779113
    38  H    6.829915   7.421857   6.193809   5.187770  10.216804
    39  H    6.206389   7.110037   5.697665   5.050646   9.255266
                   26         27         28         29         30
    26  H    0.000000
    27  H    1.791129   0.000000
    28  H    3.648032   3.045031   0.000000
    29  H    3.692912   2.461179   1.786035   0.000000
    30  H    4.241349   3.693615   1.786098   1.789920   0.000000
    31  H    3.026056   3.693254   2.381765   3.639485   2.972544
    32  H    3.675256   4.237283   3.042528   3.692880   2.460479
    33  H    2.430440   3.675105   3.648016   4.241046   3.692875
    34  N    7.237739   7.038727   8.768105   7.404456   7.729016
    35  H    7.310756   7.105471   8.498346   7.167052   7.296021
    36  C    8.037097   7.577409   9.446613   7.921857   8.480129
    37  H    7.808797   7.125542   8.884149   7.268583   7.924241
    38  H    9.077957   8.627860  10.375188   8.840591   9.309782
    39  H    8.032868   7.614694   9.770713   8.266538   8.971910
                   31         32         33         34         35
    31  H    0.000000
    32  H    1.785124   0.000000
    33  H    1.780061   1.791324   0.000000
    34  N    8.884500   7.824691   7.684252   0.000000
    35  H    8.624879   7.413286   7.481544   1.012616   0.000000
    36  C    9.847544   8.896763   8.776193   1.470442   2.137331
    37  H    9.530412   8.625982   8.631155   2.105761   2.481537
    38  H   10.777245   9.729671   9.693561   2.113763   2.535671
    39  H   10.121257   9.318129   9.001716   2.087326   2.989277
                   36         37         38         39
    36  C    0.000000
    37  H    1.092328   0.000000
    38  H    1.093692   1.784775   0.000000
    39  H    1.089339   1.785056   1.781716   0.000000
 Stoichiometry    C10H25N3O(2+)
 Framework group  C1[X(C10H25N3O)]
 Deg. of freedom   111
 Full point group                 C1      NOp   1
 Largest Abelian subgroup         C1      NOp   1
 Largest concise Abelian subgroup C1      NOp   1
                         Standard orientation:                         
 ---------------------------------------------------------------------
 Center     Atomic      Atomic             Coordinates (Angstroms)
 Number     Number       Type             X           Y           Z
 ---------------------------------------------------------------------
      1          7           0        3.504854   -2.118964   -0.050786
      2          6           0        2.588578   -1.012095   -0.547342
      3          6           0        3.222066    0.244457    0.118206
      4          8           0        3.755888    0.065890    1.215463
      5          6           0        1.160350   -1.299105   -0.036304
      6          6           0        0.107611   -0.264925   -0.477870
      7          6           0       -1.297475   -0.634415    0.049559
      8          6           0       -2.322795    0.417638   -0.387911
      9          7           0       -3.769621    0.192050    0.063558
     10          6           0       -4.602608    1.338266   -0.471506
     11          6           0       -4.321129   -1.100741   -0.489419
     12          6           0       -3.878699    0.181986    1.570090
     13          1           0        3.832890   -1.757921    0.881165
     14          1           0        2.633930   -0.999265   -1.639613
     15          1           0        0.859450   -2.291278   -0.399917
     16          1           0        1.194457   -1.345067    1.059991
     17          1           0        0.387998    0.728582   -0.108754
     18          1           0        0.083707   -0.207261   -1.574533
     19          1           0       -1.572737   -1.623951   -0.332316
     20          1           0       -1.257494   -0.703185    1.142403
     21          1           0       -2.049034    1.403812   -0.001879
     22          1           0       -2.366026    0.482399   -1.479045
     23          1           0        3.042082   -3.028693    0.048816
     24          1           0        4.333765   -2.244256   -0.644539
     25          1           0       -4.933196    0.112679    1.840814
     26          1           0       -3.343998   -0.678954    1.969549
     27          1           0       -3.456695    1.108613    1.962675
     28          1           0       -5.638052    1.194465   -0.160183
     29          1           0       -4.219583    2.275623   -0.065500
     30          1           0       -4.539795    1.345120   -1.560640
     31          1           0       -5.375418   -1.172059   -0.218417
     32          1           0       -4.218709   -1.094271   -1.575856
     33          1           0       -3.778454   -1.942416   -0.060710
     34          7           0        3.119655    1.410997   -0.528081
     35          1           0        2.755339    1.417474   -1.472868
     36          6           0        3.692645    2.662109   -0.009815
     37          1           0        2.951584    3.461570   -0.079603
     38          1           0        4.580858    2.937291   -0.585588
     39          1           0        3.970549    2.506190    1.031875
 ---------------------------------------------------------------------
 Rotational constants (GHZ):           1.1663035           0.2233746           0.2028588
 Leave Link  202 at Sun May 31 21:50:01 2026, MaxMem=    67108864 cpu:               0.4 elap:               0.1
 (Enter /software/local/apps/gaussian-16.0/g16/l301.exe)
 Standard basis: 6-31G(d) (6D, 7F)
 Ernie: Thresh=  0.10000D-02 Tol=  0.10000D-05 Strict=F.
 There are   260 symmetry adapted cartesian basis functions of A   symmetry.
 There are   260 symmetry adapted basis functions of A   symmetry.
   260 basis functions,   492 primitive gaussians,   260 cartesian basis functions
    56 alpha electrons       56 beta electrons
       nuclear repulsion energy       968.7669870804 Hartrees.
 IExCor=    0 DFT=F Ex=HF Corr=None ExCW=0 ScaHFX=  1.000000
 ScaDFX=  1.000000  1.000000  1.000000  1.000000 ScalE2=  1.000000  1.000000
 IRadAn=      5 IRanWt=     -1 IRanGd=            0 ICorTp=0 IEmpDi=  4
 NAtoms=   39 NActive=   39 NUniq=   39 SFac= 1.00D+00 NAtFMM=   60 NAOKFM=F Big=F
 Integral buffers will be    131072 words long.
 Raffenetti 1 integral format.
 Two-electron integral symmetry is turned on.
 Leave Link  301 at Sun May 31 21:50:01 2026, MaxMem=    67108864 cpu:               1.0 elap:               0.1
 (Enter /software/local/apps/gaussian-16.0/g16/l302.exe)
 NPDir=0 NMtPBC=     1 NCelOv=     1 NCel=       1 NClECP=     1 NCelD=      1
         NCelK=      1 NCelE2=     1 NClLst=     1 CellRange=     0.0.
 One-electron integrals computed using PRISM.
 One-electron integral symmetry used in STVInt
 NBasis=   260 RedAO= T EigKep=  2.44D-03  NBF=   260
 NBsUse=   260 1.00D-06 EigRej= -1.00D+00 NBFU=   260
 Leave Link  302 at Sun May 31 21:50:01 2026, MaxMem=    67108864 cpu:               2.3 elap:               0.2
 (Enter /software/local/apps/gaussian-16.0/g16/l303.exe)
 DipDrv:  MaxL=1.
 Leave Link  303 at Sun May 31 21:50:01 2026, MaxMem=    67108864 cpu:               0.6 elap:               0.1
 (Enter /software/local/apps/gaussian-16.0/g16/l401.exe)
 ExpMin= 1.61D-01 ExpMax= 5.48D+03 ExpMxC= 8.25D+02 IAcc=3 IRadAn=         5 AccDes= 0.00D+00
 Harris functional with IExCor=  205 and IRadAn=       5 diagonalized for initial guess.
 HarFok:  IExCor=  205 AccDes= 0.00D+00 IRadAn=         5 IDoV= 1 UseB2=F ITyADJ=14
 ICtDFT=  3500011 ScaDFX=  1.000000  1.000000  1.000000  1.000000
 FoFCou: FMM=F IPFlag=           0 FMFlag=      100000 FMFlg1=           0
         NFxFlg=           0 DoJE=T BraDBF=F KetDBF=T FulRan=T
         wScrn=  0.000000 ICntrl=       500 IOpCl=  0 I1Cent=   200000004 NGrid=           0
         NMat0=    1 NMatS0=      1 NMatT0=    0 NMatD0=    1 NMtDS0=    0 NMtDT0=    0
 Petite list used in FoFCou.
 Harris En= -632.176625517495    
 JPrj=0 DoOrth=F DoCkMO=F.
 Leave Link  401 at Sun May 31 21:50:02 2026, MaxMem=    67108864 cpu:              12.9 elap:               0.8
 (Enter /software/local/apps/gaussian-16.0/g16/l502.exe)
 Integral symmetry usage will be decided dynamically.
 Closed shell SCF:
 Using DIIS extrapolation, IDIIS=  1040.
 NGot=    67108864 LenX=    66965306 LenY=    66897265
 Requested convergence on RMS density matrix=1.00D-08 within 128 cycles.
 Requested convergence on MAX density matrix=1.00D-06.
 Requested convergence on             energy=1.00D-06.
 No special actions if energy rises.
 Fock matrices will be formed incrementally for  20 cycles.
 Integral accuracy reduced to 1.0D-05 until final iterations.

 Cycle   1  Pass 0  IDiag  1:
 FoFJK:  IHMeth= 1 ICntrl=       0 DoSepK=F KAlg= 0 I1Cent=           0 FoldK=F
 IRaf= 810000000 NMat=       1 IRICut=       1 DoRegI=T DoRafI=F ISym2E= 0 IDoP0=0 IntGTp=1.
 FoFCou: FMM=F IPFlag=           0 FMFlag=      100000 FMFlg1=           0
         NFxFlg=           0 DoJE=F BraDBF=F KetDBF=F FulRan=T
         wScrn=  0.000000 ICntrl=         0 IOpCl=  0 I1Cent=           0 NGrid=           0
         NMat0=    1 NMatS0=      1 NMatT0=    0 NMatD0=    1 NMtDS0=    0 NMtDT0=    0
 Symmetry not used in FoFCou.
 E= -630.371457946595    
 DIIS: error= 4.67D-02 at cycle   1 NSaved=   1.
 NSaved= 1 IEnMin= 1 EnMin= -630.371457946595     IErMin= 1 ErrMin= 4.67D-02
 ErrMax= 4.67D-02  0.00D+00 EMaxC= 1.00D-01 BMatC= 9.70D-01 BMatP= 9.70D-01
 IDIUse=3 WtCom= 5.33D-01 WtEn= 4.67D-01
 Coeff-Com:  0.100D+01
 Coeff-En:   0.100D+01
 Coeff:      0.100D+01
 Gap=     0.547 Goal=   None    Shift=    0.000
 GapD=    0.547 DampG=2.000 DampE=0.500 DampFc=1.0000 IDamp=-1.
 RMSDP=3.61D-03 MaxDP=1.05D-01              OVMax= 1.13D-01

 Cycle   2  Pass 0  IDiag  1:
 RMSU=  3.57D-03    CP:  9.72D-01
 E= -630.854601165707     Delta-E=       -0.483143219112 Rises=F Damp=F
 DIIS: error= 1.35D-02 at cycle   2 NSaved=   2.
 NSaved= 2 IEnMin= 2 EnMin= -630.854601165707     IErMin= 2 ErrMin= 1.35D-02
 ErrMax= 1.35D-02  0.00D+00 EMaxC= 1.00D-01 BMatC= 1.19D-01 BMatP= 9.70D-01
 IDIUse=3 WtCom= 8.65D-01 WtEn= 1.35D-01
 Coeff-Com:  0.182D+00 0.818D+00
 Coeff-En:   0.000D+00 0.100D+01
 Coeff:      0.157D+00 0.843D+00
 Gap=     0.581 Goal=   None    Shift=    0.000
 RMSDP=1.35D-03 MaxDP=5.46D-02 DE=-4.83D-01 OVMax= 5.05D-02

 Cycle   3  Pass 0  IDiag  1:
 RMSU=  1.10D-03    CP:  9.79D-01  7.87D-01
 E= -630.937516277786     Delta-E=       -0.082915112079 Rises=F Damp=F
 DIIS: error= 6.97D-03 at cycle   3 NSaved=   3.
 NSaved= 3 IEnMin= 3 EnMin= -630.937516277786     IErMin= 3 ErrMin= 6.97D-03
 ErrMax= 6.97D-03  0.00D+00 EMaxC= 1.00D-01 BMatC= 1.42D-02 BMatP= 1.19D-01
 IDIUse=3 WtCom= 9.30D-01 WtEn= 6.97D-02
 Coeff-Com: -0.197D-01 0.222D+00 0.797D+00
 Coeff-En:   0.000D+00 0.000D+00 0.100D+01
 Coeff:     -0.183D-01 0.207D+00 0.811D+00
 Gap=     0.547 Goal=   None    Shift=    0.000
 RMSDP=4.04D-04 MaxDP=2.41D-02 DE=-8.29D-02 OVMax= 2.54D-02

 Cycle   4  Pass 0  IDiag  1:
 RMSU=  2.82D-04    CP:  9.79D-01  8.60D-01  8.84D-01
 E= -630.948200452209     Delta-E=       -0.010684174423 Rises=F Damp=F
 DIIS: error= 1.95D-03 at cycle   4 NSaved=   4.
 NSaved= 4 IEnMin= 4 EnMin= -630.948200452209     IErMin= 4 ErrMin= 1.95D-03
 ErrMax= 1.95D-03  0.00D+00 EMaxC= 1.00D-01 BMatC= 1.00D-03 BMatP= 1.42D-02
 IDIUse=3 WtCom= 9.80D-01 WtEn= 1.95D-02
 Coeff-Com: -0.113D-01 0.378D-01 0.274D+00 0.700D+00
 Coeff-En:   0.000D+00 0.000D+00 0.000D+00 0.100D+01
 Coeff:     -0.111D-01 0.370D-01 0.269D+00 0.705D+00
 Gap=     0.546 Goal=   None    Shift=    0.000
 RMSDP=1.15D-04 MaxDP=5.96D-03 DE=-1.07D-02 OVMax= 6.75D-03

 Cycle   5  Pass 0  IDiag  1:
 RMSU=  7.54D-05    CP:  9.79D-01  8.61D-01  9.43D-01  8.00D-01
 E= -630.949048247125     Delta-E=       -0.000847794916 Rises=F Damp=F
 DIIS: error= 3.91D-04 at cycle   5 NSaved=   5.
 NSaved= 5 IEnMin= 5 EnMin= -630.949048247125     IErMin= 5 ErrMin= 3.91D-04
 ErrMax= 3.91D-04  0.00D+00 EMaxC= 1.00D-01 BMatC= 3.51D-05 BMatP= 1.00D-03
 IDIUse=3 WtCom= 9.96D-01 WtEn= 3.91D-03
 Coeff-Com:  0.176D-02-0.183D-01-0.697D-01-0.140D-01 0.110D+01
 Coeff-En:   0.000D+00 0.000D+00 0.000D+00 0.000D+00 0.100D+01
 Coeff:      0.175D-02-0.182D-01-0.694D-01-0.139D-01 0.110D+01
 Gap=     0.546 Goal=   None    Shift=    0.000
 RMSDP=4.39D-05 MaxDP=1.72D-03 DE=-8.48D-04 OVMax= 4.16D-03

 Cycle   6  Pass 0  IDiag  1:
 RMSU=  2.34D-05    CP:  9.79D-01  8.62D-01  9.61D-01  8.85D-01  1.25D+00
 E= -630.949113351734     Delta-E=       -0.000065104609 Rises=F Damp=F
 DIIS: error= 1.51D-04 at cycle   6 NSaved=   6.
 NSaved= 6 IEnMin= 6 EnMin= -630.949113351734     IErMin= 6 ErrMin= 1.51D-04
 ErrMax= 1.51D-04  0.00D+00 EMaxC= 1.00D-01 BMatC= 7.43D-06 BMatP= 3.51D-05
 IDIUse=3 WtCom= 9.98D-01 WtEn= 1.51D-03
 Coeff-Com:  0.161D-02-0.969D-02-0.481D-01-0.744D-01 0.363D+00 0.767D+00
 Coeff-En:   0.000D+00 0.000D+00 0.000D+00 0.000D+00 0.000D+00 0.100D+01
 Coeff:      0.161D-02-0.968D-02-0.480D-01-0.743D-01 0.363D+00 0.768D+00
 Gap=     0.546 Goal=   None    Shift=    0.000
 RMSDP=1.57D-05 MaxDP=6.68D-04 DE=-6.51D-05 OVMax= 9.05D-04

 Cycle   7  Pass 0  IDiag  1:
 RMSU=  8.05D-06    CP:  9.79D-01  8.63D-01  9.67D-01  9.01D-01  1.40D+00
                    CP:  1.00D+00
 E= -630.949123384804     Delta-E=       -0.000010033069 Rises=F Damp=F
 DIIS: error= 6.19D-05 at cycle   7 NSaved=   7.
 NSaved= 7 IEnMin= 7 EnMin= -630.949123384804     IErMin= 7 ErrMin= 6.19D-05
 ErrMax= 6.19D-05  0.00D+00 EMaxC= 1.00D-01 BMatC= 5.82D-07 BMatP= 7.43D-06
 IDIUse=1 WtCom= 1.00D+00 WtEn= 0.00D+00
 Coeff-Com: -0.288D-03 0.282D-02 0.120D-01 0.133D-02-0.150D+00-0.135D+00
 Coeff-Com:  0.127D+01
 Coeff:     -0.288D-03 0.282D-02 0.120D-01 0.133D-02-0.150D+00-0.135D+00
 Coeff:      0.127D+01
 Gap=     0.546 Goal=   None    Shift=    0.000
 RMSDP=8.78D-06 MaxDP=3.19D-04 DE=-1.00D-05 OVMax= 9.56D-04

 Initial convergence to 1.0D-05 achieved.  Increase integral accuracy.
 Cycle   8  Pass 1  IDiag  1:
 E= -630.949128624205     Delta-E=       -0.000005239402 Rises=F Damp=F
 DIIS: error= 2.12D-05 at cycle   1 NSaved=   1.
 NSaved= 1 IEnMin= 1 EnMin= -630.949128624205     IErMin= 1 ErrMin= 2.12D-05
 ErrMax= 2.12D-05  0.00D+00 EMaxC= 1.00D-01 BMatC= 1.55D-07 BMatP= 1.55D-07
 IDIUse=1 WtCom= 1.00D+00 WtEn= 0.00D+00
 Coeff-Com:  0.100D+01
 Coeff:      0.100D+01
 Gap=     0.546 Goal=   None    Shift=    0.000
 RMSDP=8.78D-06 MaxDP=3.19D-04 DE=-5.24D-06 OVMax= 1.88D-04

 Cycle   9  Pass 1  IDiag  1:
 RMSU=  4.51D-06    CP:  1.00D+00
 E= -630.949128864438     Delta-E=       -0.000000240233 Rises=F Damp=F
 DIIS: error= 1.59D-05 at cycle   2 NSaved=   2.
 NSaved= 2 IEnMin= 2 EnMin= -630.949128864438     IErMin= 2 ErrMin= 1.59D-05
 ErrMax= 1.59D-05  0.00D+00 EMaxC= 1.00D-01 BMatC= 2.65D-08 BMatP= 1.55D-07
 IDIUse=1 WtCom= 1.00D+00 WtEn= 0.00D+00
 Coeff-Com:  0.720D-01 0.928D+00
 Coeff:      0.720D-01 0.928D+00
 Gap=     0.546 Goal=   None    Shift=    0.000
 RMSDP=1.05D-06 MaxDP=6.04D-05 DE=-2.40D-07 OVMax= 1.42D-04

 Cycle  10  Pass 1  IDiag  1:
 RMSU=  9.17D-07    CP:  1.00D+00  1.11D+00
 E= -630.949128928354     Delta-E=       -0.000000063915 Rises=F Damp=F
 DIIS: error= 8.66D-06 at cycle   3 NSaved=   3.
 NSaved= 3 IEnMin= 3 EnMin= -630.949128928354     IErMin= 3 ErrMin= 8.66D-06
 ErrMax= 8.66D-06  0.00D+00 EMaxC= 1.00D-01 BMatC= 1.35D-08 BMatP= 2.65D-08
 IDIUse=1 WtCom= 1.00D+00 WtEn= 0.00D+00
 Coeff-Com: -0.189D+00 0.244D+00 0.946D+00
 Coeff:     -0.189D+00 0.244D+00 0.946D+00
 Gap=     0.546 Goal=   None    Shift=    0.000
 RMSDP=8.97D-07 MaxDP=4.21D-05 DE=-6.39D-08 OVMax= 8.44D-05

 Cycle  11  Pass 1  IDiag  1:
 RMSU=  5.73D-07    CP:  1.00D+00  1.22D+00  1.53D+00
 E= -630.949128958361     Delta-E=       -0.000000030008 Rises=F Damp=F
 DIIS: error= 4.11D-06 at cycle   4 NSaved=   4.
 NSaved= 4 IEnMin= 4 EnMin= -630.949128958361     IErMin= 4 ErrMin= 4.11D-06
 ErrMax= 4.11D-06  0.00D+00 EMaxC= 1.00D-01 BMatC= 1.51D-09 BMatP= 1.35D-08
 IDIUse=1 WtCom= 1.00D+00 WtEn= 0.00D+00
 Coeff-Com: -0.957D-02-0.214D+00-0.167D+00 0.139D+01
 Coeff:     -0.957D-02-0.214D+00-0.167D+00 0.139D+01
 Gap=     0.546 Goal=   None    Shift=    0.000
 RMSDP=6.16D-07 MaxDP=2.88D-05 DE=-3.00D-08 OVMax= 7.91D-05

 Cycle  12  Pass 1  IDiag  1:
 RMSU=  1.21D-07    CP:  1.00D+00  1.28D+00  2.04D+00  1.52D+00
 E= -630.949128966005     Delta-E=       -0.000000007643 Rises=F Damp=F
 DIIS: error= 1.05D-06 at cycle   5 NSaved=   5.
 NSaved= 5 IEnMin= 5 EnMin= -630.949128966005     IErMin= 5 ErrMin= 1.05D-06
 ErrMax= 1.05D-06  0.00D+00 EMaxC= 1.00D-01 BMatC= 2.03D-10 BMatP= 1.51D-09
 IDIUse=1 WtCom= 1.00D+00 WtEn= 0.00D+00
 Coeff-Com:  0.115D-01-0.928D-01-0.149D+00 0.477D+00 0.753D+00
 Coeff:      0.115D-01-0.928D-01-0.149D+00 0.477D+00 0.753D+00
 Gap=     0.546 Goal=   None    Shift=    0.000
 RMSDP=1.10D-07 MaxDP=5.44D-06 DE=-7.64D-09 OVMax= 9.40D-06

 Cycle  13  Pass 1  IDiag  1:
 RMSU=  3.83D-08    CP:  1.00D+00  1.28D+00  2.11D+00  1.63D+00  9.52D-01
 E= -630.949128966291     Delta-E=       -0.000000000286 Rises=F Damp=F
 DIIS: error= 1.42D-07 at cycle   6 NSaved=   6.
 NSaved= 6 IEnMin= 6 EnMin= -630.949128966291     IErMin= 6 ErrMin= 1.42D-07
 ErrMax= 1.42D-07  0.00D+00 EMaxC= 1.00D-01 BMatC= 7.62D-12 BMatP= 2.03D-10
 IDIUse=1 WtCom= 1.00D+00 WtEn= 0.00D+00
 Coeff-Com: -0.122D-03 0.236D-01 0.222D-01-0.127D+00-0.847D-01 0.117D+01
 Coeff:     -0.122D-03 0.236D-01 0.222D-01-0.127D+00-0.847D-01 0.117D+01
 Gap=     0.546 Goal=   None    Shift=    0.000
 RMSDP=2.34D-08 MaxDP=1.02D-06 DE=-2.86D-10 OVMax= 1.47D-06

 Cycle  14  Pass 1  IDiag  1:
 RMSU=  1.34D-08    CP:  1.00D+00  1.28D+00  2.12D+00  1.64D+00  1.04D+00
                    CP:  1.37D+00
 E= -630.949128966321     Delta-E=       -0.000000000030 Rises=F Damp=F
 DIIS: error= 8.66D-08 at cycle   7 NSaved=   7.
 NSaved= 7 IEnMin= 7 EnMin= -630.949128966321     IErMin= 7 ErrMin= 8.66D-08
 ErrMax= 8.66D-08  0.00D+00 EMaxC= 1.00D-01 BMatC= 1.92D-12 BMatP= 7.62D-12
 IDIUse=1 WtCom= 1.00D+00 WtEn= 0.00D+00
 Coeff-Com: -0.178D-02 0.204D-01 0.273D-01-0.105D+00-0.147D+00 0.303D+00
 Coeff-Com:  0.902D+00
 Coeff:     -0.178D-02 0.204D-01 0.273D-01-0.105D+00-0.147D+00 0.303D+00
 Coeff:      0.902D+00
 Gap=     0.546 Goal=   None    Shift=    0.000
 RMSDP=9.81D-09 MaxDP=3.32D-07 DE=-3.00D-11 OVMax= 7.66D-07

 SCF Done:  E(RHF) =  -630.949128966     A.U. after   14 cycles
            NFock= 14  Conv=0.98D-08     -V/T= 2.0024
 KE= 6.294332734483D+02 PE=-3.378556466231D+03 EE= 1.149407076736D+03
 Leave Link  502 at Sun May 31 21:50:08 2026, MaxMem=    67108864 cpu:              99.4 elap:               6.3
 (Enter /software/local/apps/gaussian-16.0/g16/l601.exe)
 Copying SCF densities to generalized density rwf, IOpCl= 0 IROHF=0.
 SCF density gives NOpUse=  1 NOpAll=  1.

 **********************************************************************

            Population analysis using the SCF Density.

 **********************************************************************

 Orbital symmetries:
 BldTbl:  Degeneracy threshold= 1.00D-02
       Occupied  (A) (A) (A) (A) (A) (A) (A) (A) (A) (A) (A) (A)
                 (A) (A) (A) (A) (A) (A) (A) (A) (A) (A) (A) (A)
                 (A) (A) (A) (A) (A) (A) (A) (A) (A) (A) (A) (A)
                 (A) (A) (A) (A) (A) (A) (A) (A) (A) (A) (A) (A)
                 (A) (A) (A) (A) (A) (A) (A) (A)
       Virtual   (A) (A) (A) (A) (A) (A) (A) (A) (A) (A) (A) (A)
                 (A) (A) (A) (A) (A) (A) (A) (A) (A) (A) (A) (A)
                 (A) (A) (A) (A) (A) (A) (A) (A) (A) (A) (A) (A)
                 (A) (A) (A) (A) (A) (A) (A) (A) (A) (A) (A) (A)
                 (A) (A) (A) (A) (A) (A) (A) (A) (A) (A) (A) (A)
                 (A) (A) (A) (A) (A) (A) (A) (A) (A) (A) (A) (A)
                 (A) (A) (A) (A) (A) (A) (A) (A) (A) (A) (A) (A)
                 (A) (A) (A) (A) (A) (A) (A) (A) (A) (A) (A) (A)
                 (A) (A) (A) (A) (A) (A) (A) (A) (A) (A) (A) (A)
                 (A) (A) (A) (A) (A) (A) (A) (A) (A) (A) (A) (A)
                 (A) (A) (A) (A) (A) (A) (A) (A) (A) (A) (A) (A)
                 (A) (A) (A) (A) (A) (A) (A) (A) (A) (A) (A) (A)
                 (A) (A) (A) (A) (A) (A) (A) (A) (A) (A) (A) (A)
                 (A) (A) (A) (A) (A) (A) (A) (A) (A) (A) (A) (A)
                 (A) (A) (A) (A) (A) (A) (A) (A) (A) (A) (A) (A)
                 (A) (A) (A) (A) (A) (A) (A) (A) (A) (A) (A) (A)
                 (A) (A) (A) (A) (A) (A) (A) (A) (A) (A) (A) (A)
 The electronic state is 1-A.
 Alpha  occ. eigenvalues --  -20.77836 -15.95104 -15.94747 -15.83610 -11.61038
 Alpha  occ. eigenvalues --  -11.57506 -11.54449 -11.52509 -11.52472 -11.52278
 Alpha  occ. eigenvalues --  -11.50752 -11.49601 -11.49387 -11.46315  -1.63734
 Alpha  occ. eigenvalues --   -1.57333  -1.55850  -1.47133  -1.35679  -1.30261
 Alpha  occ. eigenvalues --   -1.24039  -1.23958  -1.22700  -1.17479  -1.13633
 Alpha  occ. eigenvalues --   -1.09003  -1.06523  -1.04052  -1.02762  -1.01089
 Alpha  occ. eigenvalues --   -0.94840  -0.94647  -0.93940  -0.92434  -0.91878
 Alpha  occ. eigenvalues --   -0.90264  -0.87322  -0.86432  -0.84543  -0.84052
 Alpha  occ. eigenvalues --   -0.82189  -0.81545  -0.80789  -0.80327  -0.80123
 Alpha  occ. eigenvalues --   -0.79357  -0.79150  -0.78154  -0.76865  -0.75965
 Alpha  occ. eigenvalues --   -0.75469  -0.74498  -0.73998  -0.73813  -0.67630
 Alpha  occ. eigenvalues --   -0.62398
 Alpha virt. eigenvalues --   -0.07781  -0.06400  -0.05173  -0.02224  -0.01711
 Alpha virt. eigenvalues --   -0.00517   0.00294   0.01118   0.02008   0.02569
 Alpha virt. eigenvalues --    0.03211   0.03490   0.03707   0.05094   0.05576
 Alpha virt. eigenvalues --    0.06376   0.07251   0.07878   0.08289   0.08784
 Alpha virt. eigenvalues --    0.09002   0.09951   0.10071   0.10800   0.11181
 Alpha virt. eigenvalues --    0.11847   0.12144   0.13223   0.13460   0.13781
 Alpha virt. eigenvalues --    0.14479   0.14862   0.16414   0.16827   0.20236
 Alpha virt. eigenvalues --    0.21724   0.22358   0.27861   0.36855   0.42259
 Alpha virt. eigenvalues --    0.43009   0.44043   0.44296   0.44564   0.46094
 Alpha virt. eigenvalues --    0.47727   0.49773   0.51502   0.52792   0.53833
 Alpha virt. eigenvalues --    0.55111   0.57221   0.58092   0.58539   0.60048
 Alpha virt. eigenvalues --    0.61008   0.63466   0.63745   0.67534   0.68155
 Alpha virt. eigenvalues --    0.69804   0.71842   0.73019   0.73535   0.75310
 Alpha virt. eigenvalues --    0.77644   0.78213   0.78603   0.80920   0.81051
 Alpha virt. eigenvalues --    0.81944   0.82656   0.83513   0.83820   0.84809
 Alpha virt. eigenvalues --    0.85629   0.86631   0.87037   0.87461   0.89036
 Alpha virt. eigenvalues --    0.89779   0.90964   0.91540   0.91785   0.92702
 Alpha virt. eigenvalues --    0.93028   0.93550   0.94092   0.94943   0.95255
 Alpha virt. eigenvalues --    0.95684   0.96417   0.96964   0.97330   0.98116
 Alpha virt. eigenvalues --    0.99188   1.00068   1.02110   1.02188   1.02664
 Alpha virt. eigenvalues --    1.02897   1.04421   1.09031   1.11346   1.14045
 Alpha virt. eigenvalues --    1.15424   1.19241   1.23931   1.27836   1.32088
 Alpha virt. eigenvalues --    1.33999   1.35265   1.36717   1.42157   1.42874
 Alpha virt. eigenvalues --    1.48363   1.48950   1.49565   1.51273   1.53006
 Alpha virt. eigenvalues --    1.56003   1.60603   1.61220   1.64451   1.67005
 Alpha virt. eigenvalues --    1.68804   1.74442   1.77323   1.78483   1.78974
 Alpha virt. eigenvalues --    1.79263   1.83260   1.84735   1.88960   1.89365
 Alpha virt. eigenvalues --    1.92939   1.93848   1.95021   1.95340   1.96559
 Alpha virt. eigenvalues --    1.98198   1.99287   1.99945   2.00423   2.04970
 Alpha virt. eigenvalues --    2.06704   2.07993   2.11140   2.11443   2.14669
 Alpha virt. eigenvalues --    2.14867   2.15777   2.17783   2.18583   2.19584
 Alpha virt. eigenvalues --    2.20978   2.23895   2.27646   2.29969   2.31318
 Alpha virt. eigenvalues --    2.31888   2.32530   2.33125   2.35084   2.36080
 Alpha virt. eigenvalues --    2.37371   2.40411   2.41679   2.42487   2.43004
 Alpha virt. eigenvalues --    2.46307   2.50304   2.51820   2.52540   2.58376
 Alpha virt. eigenvalues --    2.62689   2.63463   2.67757   2.71344   2.76104
 Alpha virt. eigenvalues --    2.77662   2.78884   2.80585   2.82095   2.83580
 Alpha virt. eigenvalues --    2.89910   2.95018   3.00954   3.11931   3.27155
 Alpha virt. eigenvalues --    3.93779   4.16554   4.23144   4.32511   4.37829
 Alpha virt. eigenvalues --    4.43284   4.44901   4.45084   4.47373   4.54219
 Alpha virt. eigenvalues --    4.56266   4.61474   4.70432   4.81189
          Condensed to atoms (all electrons):
               1          2          3          4          5          6
     1  N    7.031430   0.181471  -0.059726  -0.032412  -0.060687   0.002636
     2  C    0.181471   5.285261   0.329173  -0.085016   0.320691  -0.043647
     3  C   -0.059726   0.329173   4.197752   0.534808  -0.047058  -0.000866
     4  O   -0.032412  -0.085016   0.534808   8.234671  -0.000529  -0.000036
     5  C   -0.060687   0.320691  -0.047058  -0.000529   5.157985   0.337030
     6  C    0.002636  -0.043647  -0.000866  -0.000036   0.337030   5.101542
     7  C   -0.000045   0.003934  -0.000028  -0.000003  -0.046818   0.337825
     8  C    0.000000  -0.000060  -0.000001   0.000000   0.003662  -0.045986
     9  N   -0.000000   0.000000   0.000000  -0.000000  -0.000037   0.002413
    10  C    0.000000  -0.000000  -0.000000   0.000000   0.000001  -0.000064
    11  C    0.000000   0.000000  -0.000000  -0.000000   0.000001  -0.000045
    12  C   -0.000000   0.000000   0.000000   0.000000   0.000001  -0.000043
    13  H    0.252802  -0.029524  -0.009089   0.052272   0.001203  -0.000041
    14  H   -0.030120   0.391856  -0.032739   0.001772  -0.025301  -0.000877
    15  H   -0.003176  -0.040468   0.003680  -0.000054   0.395482  -0.031932
    16  H   -0.001361  -0.041281  -0.003172   0.003649   0.394503  -0.029529
    17  H   -0.000039  -0.003807   0.002929  -0.000130  -0.037248   0.397944
    18  H   -0.000008  -0.001929  -0.000326  -0.000004  -0.040990   0.399333
    19  H   -0.000002  -0.000089  -0.000005   0.000000  -0.003098  -0.035397
    20  H    0.000000  -0.000019   0.000007  -0.000002  -0.002918  -0.035788
    21  H   -0.000000  -0.000000  -0.000002   0.000000  -0.000053  -0.001857
    22  H    0.000000  -0.000000   0.000000  -0.000000  -0.000046  -0.002016
    23  H    0.306128  -0.021902   0.004138   0.000164  -0.000285   0.000045
    24  H    0.302448  -0.015356  -0.000946   0.000977   0.002629  -0.000053
    25  H    0.000000   0.000000   0.000000   0.000000  -0.000000   0.000001
    26  H    0.000000   0.000000   0.000000   0.000000   0.000001   0.000056
    27  H   -0.000000  -0.000000  -0.000000  -0.000000   0.000000  -0.000024
    28  H   -0.000000   0.000000  -0.000000   0.000000  -0.000000   0.000001
    29  H    0.000000  -0.000000  -0.000000  -0.000000   0.000000  -0.000005
    30  H    0.000000  -0.000000   0.000000   0.000000   0.000000  -0.000004
    31  H    0.000000   0.000000   0.000000  -0.000000  -0.000000   0.000001
    32  H   -0.000000  -0.000000   0.000000   0.000000   0.000000  -0.000023
    33  H    0.000000   0.000000  -0.000000  -0.000000   0.000001   0.000053
    34  N    0.000518  -0.098098   0.327009  -0.080936  -0.000477  -0.001286
    35  H    0.000011   0.001172  -0.025246   0.001787  -0.000018   0.000245
    36  C   -0.000052   0.003069  -0.026410  -0.001558  -0.000091   0.000021
    37  H   -0.000000  -0.000063   0.002304   0.000201   0.000012   0.000012
    38  H    0.000006  -0.000150  -0.000795   0.000352  -0.000004   0.000000
    39  H   -0.000002   0.000441  -0.001656   0.003969  -0.000008   0.000001
               7          8          9         10         11         12
     1  N   -0.000045   0.000000  -0.000000   0.000000   0.000000  -0.000000
     2  C    0.003934  -0.000060   0.000000  -0.000000   0.000000   0.000000
     3  C   -0.000028  -0.000001   0.000000  -0.000000  -0.000000   0.000000
     4  O   -0.000003   0.000000  -0.000000   0.000000  -0.000000   0.000000
     5  C   -0.046818   0.003662  -0.000037   0.000001   0.000001   0.000001
     6  C    0.337825  -0.045986   0.002413  -0.000064  -0.000045  -0.000043
     7  C    5.126017   0.328234  -0.035801   0.003238  -0.001974  -0.001952
     8  C    0.328234   5.116680   0.181615  -0.059319  -0.047484  -0.047429
     9  N   -0.035801   0.181615   7.265040   0.184515   0.173218   0.172675
    10  C    0.003238  -0.059319   0.184515   5.158126  -0.054836  -0.054798
    11  C   -0.001974  -0.047484   0.173218  -0.054836   5.152002  -0.053782
    12  C   -0.001952  -0.047429   0.172675  -0.054798  -0.053782   5.152765
    13  H    0.000002  -0.000000   0.000000  -0.000000   0.000000   0.000000
    14  H   -0.000056   0.000000   0.000000   0.000000   0.000000  -0.000000
    15  H   -0.003516  -0.000010  -0.000000   0.000000  -0.000002   0.000000
    16  H   -0.003362  -0.000012  -0.000000  -0.000000   0.000000  -0.000002
    17  H   -0.035810  -0.003141  -0.000025  -0.000004  -0.000004   0.000006
    18  H   -0.037677  -0.003133  -0.000031  -0.000004   0.000007  -0.000004
    19  H    0.398128  -0.036814  -0.001404  -0.000096   0.000018  -0.000060
    20  H    0.398858  -0.036659  -0.001430  -0.000095  -0.000053   0.000024
    21  H   -0.035182   0.402647  -0.036675  -0.002706   0.003303  -0.002582
    22  H   -0.034957   0.402548  -0.036733  -0.002711  -0.002595   0.003304
    23  H   -0.000008   0.000000  -0.000000   0.000000  -0.000000  -0.000000
    24  H    0.000001  -0.000000   0.000000  -0.000000  -0.000000  -0.000000
    25  H    0.000026   0.003140  -0.030634  -0.002972  -0.002556   0.394114
    26  H    0.000558  -0.003879  -0.030419   0.003270  -0.002527   0.393560
    27  H   -0.000397  -0.002055  -0.032385  -0.002524   0.003300   0.392521
    28  H   -0.000078   0.003657  -0.030783   0.392925  -0.002926  -0.002930
    29  H   -0.000032  -0.003507  -0.031288   0.392694   0.003373  -0.002772
    30  H   -0.000032  -0.003497  -0.031293   0.392680  -0.002791   0.003368
    31  H    0.000023   0.003142  -0.030629  -0.002966   0.394177  -0.002539
    32  H   -0.000384  -0.002074  -0.032433  -0.002525   0.392528   0.003305
    33  H    0.000550  -0.003879  -0.030469   0.003281   0.393561  -0.002522
    34  N    0.000093   0.000000   0.000000  -0.000000   0.000000   0.000000
    35  H   -0.000003  -0.000000  -0.000000   0.000000  -0.000000  -0.000000
    36  C   -0.000002   0.000000  -0.000000   0.000000  -0.000000  -0.000000
    37  H   -0.000001  -0.000000  -0.000000   0.000000  -0.000000  -0.000000
    38  H    0.000000   0.000000   0.000000  -0.000000   0.000000   0.000000
    39  H   -0.000000   0.000000  -0.000000   0.000000  -0.000000   0.000000
              13         14         15         16         17         18
     1  N    0.252802  -0.030120  -0.003176  -0.001361  -0.000039  -0.000008
     2  C   -0.029524   0.391856  -0.040468  -0.041281  -0.003807  -0.001929
     3  C   -0.009089  -0.032739   0.003680  -0.003172   0.002929  -0.000326
     4  O    0.052272   0.001772  -0.000054   0.003649  -0.000130  -0.000004
     5  C    0.001203  -0.025301   0.395482   0.394503  -0.037248  -0.040990
     6  C   -0.000041  -0.000877  -0.031932  -0.029529   0.397944   0.399333
     7  C    0.000002  -0.000056  -0.003516  -0.003362  -0.035810  -0.037677
     8  C   -0.000000   0.000000  -0.000010  -0.000012  -0.003141  -0.003133
     9  N    0.000000   0.000000  -0.000000  -0.000000  -0.000025  -0.000031
    10  C   -0.000000   0.000000   0.000000  -0.000000  -0.000004  -0.000004
    11  C    0.000000   0.000000  -0.000002   0.000000  -0.000004   0.000007
    12  C    0.000000  -0.000000   0.000000  -0.000002   0.000006  -0.000004
    13  H    0.223773   0.002336  -0.000170   0.001257   0.000011  -0.000002
    14  H    0.002336   0.420935  -0.002351   0.002982   0.000204   0.001230
    15  H   -0.000170  -0.002351   0.490934  -0.023893   0.003195  -0.001989
    16  H    0.001257   0.002982  -0.023893   0.467439  -0.001682   0.003147
    17  H    0.000011   0.000204   0.003195  -0.001682   0.487036  -0.025693
    18  H   -0.000002   0.001230  -0.001989   0.003147  -0.025693   0.509053
    19  H    0.000000   0.000012   0.001640   0.000334   0.003206  -0.001908
    20  H   -0.000001  -0.000004   0.000327   0.001359  -0.001722   0.003365
    21  H    0.000000   0.000000  -0.000003   0.000016   0.001497   0.000310
    22  H   -0.000000  -0.000001   0.000016  -0.000003   0.000319   0.001451
    23  H   -0.006273  -0.000509   0.002969  -0.000339   0.000008   0.000003
    24  H   -0.004155  -0.001163  -0.000118   0.000010  -0.000000   0.000002
    25  H   -0.000000   0.000000  -0.000000   0.000000  -0.000000   0.000000
    26  H    0.000000   0.000000   0.000000  -0.000002   0.000003  -0.000001
    27  H    0.000000   0.000000  -0.000000   0.000000  -0.000002   0.000000
    28  H    0.000000   0.000000  -0.000000  -0.000000   0.000000   0.000000
    29  H    0.000000   0.000000  -0.000000   0.000000  -0.000001   0.000000
    30  H   -0.000000  -0.000000   0.000000  -0.000000   0.000000  -0.000001
    31  H    0.000000   0.000000   0.000000  -0.000000   0.000000  -0.000000
    32  H   -0.000000  -0.000000   0.000000  -0.000000   0.000000  -0.000002
    33  H   -0.000000  -0.000000  -0.000002   0.000000  -0.000001   0.000003
    34  N    0.002007   0.005095  -0.000114   0.000323   0.002341   0.000259
    35  H   -0.000062   0.001122  -0.000003   0.000006  -0.000197   0.000241
    36  C   -0.000023  -0.000075   0.000002   0.000003  -0.000075   0.000002
    37  H   -0.000000  -0.000001  -0.000000   0.000000  -0.000040  -0.000001
    38  H    0.000002  -0.000002   0.000000  -0.000000   0.000006   0.000000
    39  H   -0.000015  -0.000006   0.000000  -0.000001  -0.000016   0.000000
              19         20         21         22         23         24
     1  N   -0.000002   0.000000  -0.000000   0.000000   0.306128   0.302448
     2  C   -0.000089  -0.000019  -0.000000  -0.000000  -0.021902  -0.015356
     3  C   -0.000005   0.000007  -0.000002   0.000000   0.004138  -0.000946
     4  O    0.000000  -0.000002   0.000000  -0.000000   0.000164   0.000977
     5  C   -0.003098  -0.002918  -0.000053  -0.000046  -0.000285   0.002629
     6  C   -0.035397  -0.035788  -0.001857  -0.002016   0.000045  -0.000053
     7  C    0.398128   0.398858  -0.035182  -0.034957  -0.000008   0.000001
     8  C   -0.036814  -0.036659   0.402647   0.402548   0.000000  -0.000000
     9  N   -0.001404  -0.001430  -0.036675  -0.036733  -0.000000   0.000000
    10  C   -0.000096  -0.000095  -0.002706  -0.002711   0.000000  -0.000000
    11  C    0.000018  -0.000053   0.003303  -0.002595  -0.000000  -0.000000
    12  C   -0.000060   0.000024  -0.002582   0.003304  -0.000000  -0.000000
    13  H    0.000000  -0.000001   0.000000  -0.000000  -0.006273  -0.004155
    14  H    0.000012  -0.000004   0.000000  -0.000001  -0.000509  -0.001163
    15  H    0.001640   0.000327  -0.000003   0.000016   0.002969  -0.000118
    16  H    0.000334   0.001359   0.000016  -0.000003  -0.000339   0.000010
    17  H    0.003206  -0.001722   0.001497   0.000319   0.000008  -0.000000
    18  H   -0.001908   0.003365   0.000310   0.001451   0.000003   0.000002
    19  H    0.493253  -0.024533   0.002840  -0.001620  -0.000001   0.000000
    20  H   -0.024533   0.488397  -0.001621   0.002801   0.000001   0.000000
    21  H    0.002840  -0.001621   0.451704  -0.020495  -0.000000   0.000000
    22  H   -0.001620   0.002801  -0.020495   0.452207   0.000000   0.000000
    23  H   -0.000001   0.000001  -0.000000   0.000000   0.257108  -0.009222
    24  H    0.000000   0.000000   0.000000   0.000000  -0.009222   0.249266
    25  H   -0.000018   0.000090  -0.000099  -0.000061   0.000000   0.000000
    26  H    0.000019  -0.000765   0.000031  -0.000078  -0.000000  -0.000000
    27  H    0.000017  -0.000038   0.002060  -0.000000  -0.000000  -0.000000
    28  H    0.000002   0.000002  -0.000018  -0.000020  -0.000000   0.000000
    29  H   -0.000001   0.000005   0.002201  -0.000170  -0.000000  -0.000000
    30  H    0.000005  -0.000001  -0.000174   0.002195  -0.000000  -0.000000
    31  H    0.000090  -0.000018  -0.000061  -0.000098   0.000000   0.000000
    32  H   -0.000035   0.000017  -0.000001   0.002068  -0.000000  -0.000000
    33  H   -0.000776   0.000020  -0.000079   0.000030   0.000000  -0.000000
    34  N   -0.000001   0.000002  -0.000003  -0.000000  -0.000064   0.000110
    35  H    0.000000   0.000001   0.000000   0.000000  -0.000002  -0.000009
    36  C    0.000000  -0.000000   0.000000   0.000000   0.000001  -0.000003
    37  H    0.000000  -0.000000   0.000000   0.000000  -0.000000   0.000000
    38  H   -0.000000   0.000000  -0.000000  -0.000000  -0.000000  -0.000001
    39  H   -0.000000   0.000000  -0.000000   0.000000   0.000000  -0.000000
              25         26         27         28         29         30
     1  N    0.000000   0.000000  -0.000000  -0.000000   0.000000   0.000000
     2  C    0.000000   0.000000  -0.000000   0.000000  -0.000000  -0.000000
     3  C    0.000000   0.000000  -0.000000  -0.000000  -0.000000   0.000000
     4  O    0.000000   0.000000  -0.000000   0.000000  -0.000000   0.000000
     5  C   -0.000000   0.000001   0.000000  -0.000000   0.000000   0.000000
     6  C    0.000001   0.000056  -0.000024   0.000001  -0.000005  -0.000004
     7  C    0.000026   0.000558  -0.000397  -0.000078  -0.000032  -0.000032
     8  C    0.003140  -0.003879  -0.002055   0.003657  -0.003507  -0.003497
     9  N   -0.030634  -0.030419  -0.032385  -0.030783  -0.031288  -0.031293
    10  C   -0.002972   0.003270  -0.002524   0.392925   0.392694   0.392680
    11  C   -0.002556  -0.002527   0.003300  -0.002926   0.003373  -0.002791
    12  C    0.394114   0.393560   0.392521  -0.002930  -0.002772   0.003368
    13  H   -0.000000   0.000000   0.000000   0.000000   0.000000  -0.000000
    14  H    0.000000   0.000000   0.000000   0.000000   0.000000  -0.000000
    15  H   -0.000000   0.000000  -0.000000  -0.000000  -0.000000   0.000000
    16  H    0.000000  -0.000002   0.000000  -0.000000   0.000000  -0.000000
    17  H   -0.000000   0.000003  -0.000002   0.000000  -0.000001   0.000000
    18  H    0.000000  -0.000001   0.000000   0.000000   0.000000  -0.000001
    19  H   -0.000018   0.000019   0.000017   0.000002  -0.000001   0.000005
    20  H    0.000090  -0.000765  -0.000038   0.000002   0.000005  -0.000001
    21  H   -0.000099   0.000031   0.002060  -0.000018   0.002201  -0.000174
    22  H   -0.000061  -0.000078  -0.000000  -0.000020  -0.000170   0.002195
    23  H    0.000000  -0.000000  -0.000000  -0.000000  -0.000000  -0.000000
    24  H    0.000000  -0.000000  -0.000000   0.000000  -0.000000  -0.000000
    25  H    0.416270  -0.019308  -0.017903   0.001988  -0.000185  -0.000002
    26  H   -0.019308   0.438213  -0.018942  -0.000025  -0.000027  -0.000081
    27  H   -0.017903  -0.018942   0.432039  -0.000104   0.001726  -0.000051
    28  H    0.001988  -0.000025  -0.000104   0.416498  -0.017854  -0.017865
    29  H   -0.000185  -0.000027   0.001726  -0.017854   0.428729  -0.018687
    30  H   -0.000002  -0.000081  -0.000051  -0.017865  -0.018687   0.428825
    31  H    0.001757  -0.000135  -0.000039   0.001988  -0.000004  -0.000181
    32  H   -0.000040  -0.000023  -0.000082  -0.000107  -0.000050   0.001727
    33  H   -0.000132   0.001652  -0.000024  -0.000025  -0.000081  -0.000028
    34  N    0.000000  -0.000000   0.000000  -0.000000   0.000000  -0.000000
    35  H    0.000000  -0.000000  -0.000000  -0.000000  -0.000000   0.000000
    36  C   -0.000000  -0.000000  -0.000000   0.000000  -0.000000   0.000000
    37  H   -0.000000  -0.000000  -0.000000   0.000000  -0.000000  -0.000000
    38  H    0.000000   0.000000   0.000000  -0.000000   0.000000  -0.000000
    39  H   -0.000000  -0.000000  -0.000000   0.000000  -0.000000   0.000000
              31         32         33         34         35         36
     1  N    0.000000  -0.000000   0.000000   0.000518   0.000011  -0.000052
     2  C    0.000000  -0.000000   0.000000  -0.098098   0.001172   0.003069
     3  C    0.000000   0.000000  -0.000000   0.327009  -0.025246  -0.026410
     4  O   -0.000000   0.000000  -0.000000  -0.080936   0.001787  -0.001558
     5  C   -0.000000   0.000000   0.000001  -0.000477  -0.000018  -0.000091
     6  C    0.000001  -0.000023   0.000053  -0.001286   0.000245   0.000021
     7  C    0.000023  -0.000384   0.000550   0.000093  -0.000003  -0.000002
     8  C    0.003142  -0.002074  -0.003879   0.000000  -0.000000   0.000000
     9  N   -0.030629  -0.032433  -0.030469   0.000000  -0.000000  -0.000000
    10  C   -0.002966  -0.002525   0.003281  -0.000000   0.000000   0.000000
    11  C    0.394177   0.392528   0.393561   0.000000  -0.000000  -0.000000
    12  C   -0.002539   0.003305  -0.002522   0.000000  -0.000000  -0.000000
    13  H    0.000000  -0.000000  -0.000000   0.002007  -0.000062  -0.000023
    14  H    0.000000  -0.000000  -0.000000   0.005095   0.001122  -0.000075
    15  H    0.000000   0.000000  -0.000002  -0.000114  -0.000003   0.000002
    16  H   -0.000000  -0.000000   0.000000   0.000323   0.000006   0.000003
    17  H    0.000000   0.000000  -0.000001   0.002341  -0.000197  -0.000075
    18  H   -0.000000  -0.000002   0.000003   0.000259   0.000241   0.000002
    19  H    0.000090  -0.000035  -0.000776  -0.000001   0.000000   0.000000
    20  H   -0.000018   0.000017   0.000020   0.000002   0.000001  -0.000000
    21  H   -0.000061  -0.000001  -0.000079  -0.000003   0.000000   0.000000
    22  H   -0.000098   0.002068   0.000030  -0.000000   0.000000   0.000000
    23  H    0.000000  -0.000000   0.000000  -0.000064  -0.000002   0.000001
    24  H    0.000000  -0.000000  -0.000000   0.000110  -0.000009  -0.000003
    25  H    0.001757  -0.000040  -0.000132   0.000000   0.000000  -0.000000
    26  H   -0.000135  -0.000023   0.001652  -0.000000  -0.000000  -0.000000
    27  H   -0.000039  -0.000082  -0.000024   0.000000  -0.000000  -0.000000
    28  H    0.001988  -0.000107  -0.000025  -0.000000  -0.000000   0.000000
    29  H   -0.000004  -0.000050  -0.000081   0.000000  -0.000000  -0.000000
    30  H   -0.000181   0.001727  -0.000028  -0.000000   0.000000   0.000000
    31  H    0.416031  -0.017921  -0.019307  -0.000000   0.000000  -0.000000
    32  H   -0.017921   0.432871  -0.019042  -0.000000   0.000000   0.000000
    33  H   -0.019307  -0.019042   0.439025   0.000000   0.000000  -0.000000
    34  N   -0.000000  -0.000000   0.000000   7.274828   0.322467   0.143453
    35  H    0.000000   0.000000   0.000000   0.322467   0.304476  -0.016335
    36  C   -0.000000   0.000000  -0.000000   0.143453  -0.016335   5.022189
    37  H    0.000000   0.000000  -0.000000  -0.038464  -0.001732   0.396619
    38  H    0.000000  -0.000000   0.000000  -0.039361  -0.000625   0.400325
    39  H   -0.000000   0.000000  -0.000000  -0.031552   0.002124   0.396192
              37         38         39
     1  N   -0.000000   0.000006  -0.000002
     2  C   -0.000063  -0.000150   0.000441
     3  C    0.002304  -0.000795  -0.001656
     4  O    0.000201   0.000352   0.003969
     5  C    0.000012  -0.000004  -0.000008
     6  C    0.000012   0.000000   0.000001
     7  C   -0.000001   0.000000  -0.000000
     8  C   -0.000000   0.000000   0.000000
     9  N   -0.000000   0.000000  -0.000000
    10  C    0.000000  -0.000000   0.000000
    11  C   -0.000000   0.000000  -0.000000
    12  C   -0.000000   0.000000   0.000000
    13  H   -0.000000   0.000002  -0.000015
    14  H   -0.000001  -0.000002  -0.000006
    15  H   -0.000000   0.000000   0.000000
    16  H    0.000000  -0.000000  -0.000001
    17  H   -0.000040   0.000006  -0.000016
    18  H   -0.000001   0.000000   0.000000
    19  H    0.000000  -0.000000  -0.000000
    20  H   -0.000000   0.000000   0.000000
    21  H    0.000000  -0.000000  -0.000000
    22  H    0.000000  -0.000000   0.000000
    23  H   -0.000000  -0.000000   0.000000
    24  H    0.000000  -0.000001  -0.000000
    25  H   -0.000000   0.000000  -0.000000
    26  H   -0.000000   0.000000  -0.000000
    27  H   -0.000000   0.000000  -0.000000
    28  H    0.000000  -0.000000   0.000000
    29  H   -0.000000   0.000000  -0.000000
    30  H   -0.000000  -0.000000   0.000000
    31  H    0.000000   0.000000  -0.000000
    32  H    0.000000  -0.000000   0.000000
    33  H   -0.000000   0.000000  -0.000000
    34  N   -0.038464  -0.039361  -0.031552
    35  H   -0.001732  -0.000625   0.002124
    36  C    0.396619   0.400325   0.396192
    37  H    0.477534  -0.027536  -0.020047
    38  H   -0.027536   0.460604  -0.019949
    39  H   -0.020047  -0.019949   0.415302
 Mulliken charges:
               1
     1  N   -0.889819
     2  C   -0.135660
     3  C    0.806265
     4  O   -0.633940
     5  C   -0.347539
     6  C   -0.349641
     7  C   -0.359369
     8  C   -0.146388
     9  N   -0.587007
    10  C   -0.345108
    11  C   -0.343910
    12  C   -0.344229
    13  H    0.513691
    14  H    0.265660
    15  H    0.209555
    16  H    0.229610
    17  H    0.210931
    18  H    0.195297
    19  H    0.206296
    20  H    0.210391
    21  H    0.235002
    22  H    0.234666
    23  H    0.468040
    24  H    0.475582
    25  H    0.256527
    26  H    0.238852
    27  H    0.242908
    28  H    0.255674
    29  H    0.245936
    30  H    0.245887
    31  H    0.256689
    32  H    0.242225
    33  H    0.238190
    34  N   -0.788149
    35  H    0.410582
    36  C   -0.317254
    37  H    0.211203
    38  H    0.227129
    39  H    0.255223
 Sum of Mulliken charges =   2.00000
 Mulliken charges with hydrogens summed into heavy atoms:
               1
     1  N    0.567493
     2  C    0.130001
     3  C    0.806265
     4  O   -0.633940
     5  C    0.091626
     6  C    0.056587
     7  C    0.057318
     8  C    0.323281
     9  N   -0.587007
    10  C    0.402390
    11  C    0.393194
    12  C    0.394058
    34  N   -0.377567
    36  C    0.376301
 DipInt: DoE/N= T F RetVal/Mat= T F Init=T NMatP=  1 IDeriv=0 Min/MaxMlt=  0  4
 Entering OneElI...
 OneElI was handed    66932922 working-precision words.
 Multipole integrals L=0 to 4 MinM= 0 MaxM= 0.
 Requested accuracy = 0.1000D-12
 PrtBox:  NBox=     1 Levels=  1 BoxLen=   35.86 SMaxX=       19.31
          Shift=           10.654374            5.723400            3.098419
 Box      1 Number                   0 centers from      1 to    106:
 ShPair: Thresh= 1.00D-13 NBox=     1 BxSize= 3.59D+01 RnKept= 2.04D+01
         NSMCal=                 5671 NSMKep=                4570
 PrmmSu-InSpLW:  IPartL=    0 NPrtUS=    1 NPrtUL=    1 DoSpLW=F IThBeg=    0 IThEnd=    0 NThAct=    1.
 PrSmSu:  IncTry=   512 NBBP=           4570 NTPThr=   100 NPartT=    1 Incr=          45 LDynOK=F GPUOK=F.
 PrsmSu:  NPrtUS=   1 ThrOK=F IAlg=2 LenDen=           0 ISkipM=0 DoSpLW=F IThBeg=    0 IThEnd=    0.
 Prism:   IPart=     0 DynPar=F LinDyn=F Incr=          45.
 PRISM was handed    66580947 working-precision words and  4570 shell-pairs
 IPart=  0 NShTot=        4570 NBatch=          52 AvBLen=        87.9
 PrsmSu-ThDecC:  IPartSL=    0    0 NPrtUSL=    1    1 IThBeg=    0 IThEnd=    0 CPU=   -1 GPU=   -1 NThAct=    1.
 PrSmSu:  NxtVal=             46.
 Electronic moments (au):
       -112.00000000         -1.36641476         -1.76361419         -1.37281036
      -4355.17993215       -763.44101474       -295.18967604        -15.94465161
        -10.78144077         -0.45653060       5163.92766339       -601.96204170
       -250.67484942      -2227.84472509      -1858.84070055       -697.74259823
        403.28459541        -45.40917275        194.69130720         27.06520549
    -246355.35355133     -14636.21983982      -2636.07767356       -917.48891215
      -3619.07079756      -4048.56682263         99.91472823       1086.28857530
        -92.60580770     -33511.94644923     -13121.77693094      -1189.13601313
        134.45975086        -16.61243094        117.56264666
 Electronic spatial extent (au):  <R**2>=           5413.8106
 DipInt: DoE/N= F T RetVal/Mat= T F Init=T NMatP=  1 IDeriv=0 Min/MaxMlt=  0  4
 Nuclear    moments (au):
        114.00000000          0.00000000         -0.00000000         -0.00000000
       4386.34163701        726.84009253        237.54934978         -0.00000000
          0.00014247          0.00000753      -5367.10702574        560.20691698
        243.67294602       2347.76174290       1789.80197017        639.86895653
       -424.66090274         43.89257755       -198.61316116        -28.46028573
     237887.46708256      12728.15005188       1752.99905830        -18.02754350
       3092.37135584       3720.40016679        -94.27131417      -1178.66707028
         76.39333904      31946.45272396      10777.22619932        644.73386330
       -116.80791633          9.30713666       -165.62003847
 Total      moments (au):
          2.00000000         -1.36641476         -1.76361419         -1.37281036
         31.16170486        -36.60092222        -57.64032626        -15.94465161
        -10.78129830         -0.45652307       -203.17936235        -41.75512472
         -7.00190340        119.91701781        -69.03873038        -57.87364169
        -21.37630734         -1.51659520         -3.92185396         -1.39508025
      -8467.88646877      -1908.06978794       -883.07861526       -935.51645565
       -526.69944171       -328.16665584          5.64341406        -92.37849498
        -16.21246866      -1565.49372527      -2344.55073162       -544.40214983
         17.65183452         -7.30529427        -48.05739181
 Traceless Quadrup. (au):
         52.18821940        -15.57440768        -36.61381172        -15.94465161
        -10.78129830         -0.45652307
 Charge=              2.0000 electrons
 Dipole moment (field-independent basis, Debye):
    X=             -3.4731    Y=             -4.4827    Z=             -3.4893  Tot=              6.6582
 Quadrupole moment (field-independent basis, Debye-Ang):
   XX=             41.9136   YY=            -49.2295   ZZ=            -77.5282
   XY=            -21.4461   XZ=            -14.5012   YZ=             -0.6140
 Traceless Quadrupole moment (field-independent basis, Debye-Ang):
   XX=             70.1949   YY=            -20.9481   ZZ=            -49.2468
   XY=            -21.4461   XZ=            -14.5012   YZ=             -0.6140
 Octapole moment (field-independent basis, Debye-Ang**2):
  XXX=           -144.6152  YYY=            -29.7197  ZZZ=             -4.9837  XYY=             85.3523
  XXY=            -49.1391  XXZ=            -41.1922  XZZ=            -15.2148  YZZ=             -1.0795
  YYZ=             -2.7914  XYZ=             -0.9930
 Hexadecapole moment (field-independent basis, Debye-Ang**3):
 XXXX=          -3189.4121 YYYY=           -718.6706 ZZZZ=           -332.6098 XXXY=           -352.3604
 XXXZ=           -198.3803 YYYX=           -123.6033 YYYZ=              2.1256 ZZZX=            -34.7942
 ZZZY=             -6.1064 XXYY=           -589.6400 XXZZ=           -883.0702 YYZZ=           -205.0480
 XXYZ=              6.6485 YYXZ=             -2.7515 ZZXY=            -18.1007
 N-N= 9.687669870804D+02 E-N=-3.378556461012D+03  KE= 6.294332734483D+02
 Entering OneElI...
 OneElI was handed    66965578 working-precision words.
 Calculate electrostatic properties
    NBasis =   260  MinDer = 0  MaxDer = 0
    NGrid  =    39  NMatD  =   1
 Requested accuracy = 0.1000D-12
 PrtBox:  NBox=     1 Levels=  1 BoxLen=   29.89 SMaxX=       19.31
          Shift=           10.654374            5.723400            3.098419
 Box      1 Number                   0 centers from      1 to    106:
 ShPair: Thresh= 1.00D-13 NBox=     1 BxSize= 2.99D+01 RnKept= 1.72D+01
         NSMCal=                 5671 NSMKep=                3933
 PrmmSu-InSpLW:  IPartL=    0 NPrtUS=   16 NPrtUL=    1 DoSpLW=F IThBeg=    0 IThEnd=   15 NThAct=   16.
 PrSmSu:  IncTry=   512 NBBP=         153387 NTPThr=   100 NPartT=   16 Incr=          95 LDynOK=F GPUOK=F.
 PrsmSu:  NPrtUS=  16 ThrOK=T IAlg=2 LenDen=           0 ISkipM=0 DoSpLW=F IThBeg=    0 IThEnd=   15.
 Prism:   IPart=     0 DynPar=F LinDyn=F Incr=          95.
 PRISM was handed     4062264 working-precision words and  3933 shell-pairs
 PRISM was handed     4062264 working-precision words and  3933 shell-pairs
 PRISM was handed     4062264 working-precision words and  3933 shell-pairs
 PRISM was handed     4062264 working-precision words and  3933 shell-pairs
 PRISM was handed     4062264 working-precision words and  3933 shell-pairs
 PRISM was handed     4062264 working-precision words and  3933 shell-pairs
 PRISM was handed     4062264 working-precision words and  3933 shell-pairs
 PRISM was handed     4062264 working-precision words and  3933 shell-pairs
 PRISM was handed     4062264 working-precision words and  3933 shell-pairs
 PRISM was handed     4062264 working-precision words and  3933 shell-pairs
 PRISM was handed     4062264 working-precision words and  3933 shell-pairs
 PRISM was handed     4062264 working-precision words and  3933 shell-pairs
 PRISM was handed     4062264 working-precision words and  3933 shell-pairs
 PRISM was handed     4062264 working-precision words and  3933 shell-pairs
 PRISM was handed     4062264 working-precision words and  3933 shell-pairs
 PRISM was handed     4062264 working-precision words and  3933 shell-pairs
 IPart=  4 NShTot=        9828 NBatch=         252 AvBLen=        39.0
 PrsmSu-ThDecC:  IPartSL=    4    0 NPrtUSL=   16    1 IThBeg=    0 IThEnd=   15 CPU=   -1 GPU=   -1 NThAct=   16.
 IPart=  0 NShTot=       10296 NBatch=         264 AvBLen=        39.0
 PrsmSu-ThDecC:  IPartSL=    0    0 NPrtUSL=   16    1 IThBeg=    0 IThEnd=   15 CPU=   -1 GPU=   -1 NThAct=   15.
 IPart=  7 NShTot=        9711 NBatch=         249 AvBLen=        39.0
 PrsmSu-ThDecC:  IPartSL=    7    0 NPrtUSL=   16    1 IThBeg=    0 IThEnd=   15 CPU=   -1 GPU=   -1 NThAct=   14.
 IPart=  3 NShTot=        9945 NBatch=         255 AvBLen=        39.0
 PrsmSu-ThDecC:  IPartSL=    3    0 NPrtUSL=   16    1 IThBeg=    0 IThEnd=   15 CPU=   -1 GPU=   -1 NThAct=   13.
 IPart=  2 NShTot=       10023 NBatch=         257 AvBLen=        39.0
 PrsmSu-ThDecC:  IPartSL=    2    0 NPrtUSL=   16    1 IThBeg=    0 IThEnd=   15 CPU=   -1 GPU=   -1 NThAct=   12.
 IPart=  5 NShTot=        9750 NBatch=         250 AvBLen=        39.0
 PrsmSu-ThDecC:  IPartSL=    5    0 NPrtUSL=   16    1 IThBeg=    0 IThEnd=   15 CPU=   -1 GPU=   -1 NThAct=   11.
 IPart= 10 NShTot=        9438 NBatch=         242 AvBLen=        39.0
 PrsmSu-ThDecC:  IPartSL=   10    0 NPrtUSL=   16    1 IThBeg=    0 IThEnd=   15 CPU=   -1 GPU=   -1 NThAct=   10.
 IPart=  6 NShTot=        9750 NBatch=         250 AvBLen=        39.0
 PrsmSu-ThDecC:  IPartSL=    6    0 NPrtUSL=   16    1 IThBeg=    0 IThEnd=   15 CPU=   -1 GPU=   -1 NThAct=    9.
 IPart= 14 NShTot=        8970 NBatch=         230 AvBLen=        39.0
 IPart= 15 NShTot=        8814 NBatch=         226 AvBLen=        39.0
 PrsmSu-ThDecC:  IPartSL=   14    0 NPrtUSL=   16    1 IThBeg=    0 IThEnd=   15 CPU=   -1 GPU=   -1 NThAct=    8.
 PrsmSu-ThDecC:  IPartSL=   15    0 NPrtUSL=   16    1 IThBeg=    0 IThEnd=   15 CPU=   -1 GPU=   -1 NThAct=    7.
 IPart= 13 NShTot=        9087 NBatch=         233 AvBLen=        39.0
 PrsmSu-ThDecC:  IPartSL=   13    0 NPrtUSL=   16    1 IThBeg=    0 IThEnd=   15 CPU=   -1 GPU=   -1 NThAct=    6.
 IPart=  1 NShTot=       10062 NBatch=         258 AvBLen=        39.0
 PrsmSu-ThDecC:  IPartSL=    1    0 NPrtUSL=   16    1 IThBeg=    0 IThEnd=   15 CPU=   -1 GPU=   -1 NThAct=    5.
 IPart= 12 NShTot=        9243 NBatch=         237 AvBLen=        39.0
 PrsmSu-ThDecC:  IPartSL=   12    0 NPrtUSL=   16    1 IThBeg=    0 IThEnd=   15 CPU=   -1 GPU=   -1 NThAct=    4.
 IPart=  9 NShTot=        9477 NBatch=         243 AvBLen=        39.0
 PrsmSu-ThDecC:  IPartSL=    9    0 NPrtUSL=   16    1 IThBeg=    0 IThEnd=   15 CPU=   -1 GPU=   -1 NThAct=    3.
 IPart=  8 NShTot=        9672 NBatch=         248 AvBLen=        39.0
 PrsmSu-ThDecC:  IPartSL=    8    0 NPrtUSL=   16    1 IThBeg=    0 IThEnd=   15 CPU=   -1 GPU=   -1 NThAct=    2.
 IPart= 11 NShTot=        9321 NBatch=         239 AvBLen=        39.0
 PrsmSu-ThDecC:  IPartSL=   11    0 NPrtUSL=   16    1 IThBeg=    0 IThEnd=   15 CPU=   -1 GPU=   -1 NThAct=    1.
[...]
  741 Fit       0.180785
  742 Fit       0.184523
  743 Fit       0.179925
  744 Fit       0.181468
  745 Fit       0.188747
  746 Fit       0.185544
  747 Fit       0.190225
  748 Fit       0.202291
  749 Fit       0.200349
  750 Fit       0.190659
  751 Fit       0.187188
  752 Fit       0.195738
  753 Fit       0.185976
  754 Fit       0.184831
  755 Fit       0.187462
  756 Fit       0.210586
  757 Fit       0.187985
  758 Fit       0.196030
  759 Fit       0.185490
  760 Fit       0.179617
  761 Fit       0.207420
  762 Fit       0.211006
  763 Fit       0.197667
  764 Fit       0.186328
  765 Fit       0.200721
  766 Fit       0.232788
  767 Fit       0.228758
  768 Fit       0.236075
  769 Fit       0.236218
  770 Fit       0.241280
  771 Fit       0.217497
  772 Fit       0.222856
  773 Fit       0.228951
  774 Fit       0.226035
  775 Fit       0.220507
  776 Fit       0.219003
  777 Fit       0.216304
  778 Fit       0.220642
  779 Fit       0.221896
  780 Fit       0.222672
  781 Fit       0.215335
  782 Fit       0.228684
  783 Fit       0.218422
  784 Fit       0.217905
  785 Fit       0.239020
  786 Fit       0.233477
  787 Fit       0.221532
  788 Fit       0.233816
  789 Fit       0.236566
  790 Fit       0.199248
  791 Fit       0.198209
  792 Fit       0.192886
  793 Fit       0.207550
  794 Fit       0.213235
  795 Fit       0.206322
  796 Fit       0.206844
  797 Fit       0.217000
  798 Fit       0.218152
  799 Fit       0.217674
  800 Fit       0.232249
  801 Fit       0.222679
  802 Fit       0.209773
  803 Fit       0.221736
  804 Fit       0.215285
  805 Fit       0.215189
  806 Fit       0.222661
  807 Fit       0.232596
  808 Fit       0.222436
  809 Fit       0.229579
  810 Fit       0.227749
  811 Fit       0.239654
  812 Fit       0.227242
  813 Fit       0.218840
  814 Fit       0.215542
  815 Fit       0.219222
  816 Fit       0.215889
  817 Fit       0.221250
  818 Fit       0.212787
  819 Fit       0.218200
  820 Fit       0.225811
  821 Fit       0.217519
  822 Fit       0.217154
  823 Fit       0.215010
  824 Fit       0.225295
  825 Fit       0.222093
  826 Fit       0.225425
  827 Fit       0.233183
  828 Fit       0.211918
  829 Fit       0.212851
  830 Fit       0.213269
  831 Fit       0.211483
  832 Fit       0.224574
  833 Fit       0.224371
  834 Fit       0.218015
  835 Fit       0.221016
  836 Fit       0.234338
  837 Fit       0.223885
  838 Fit       0.224186
  839 Fit       0.214286
  840 Fit       0.219310
  841 Fit       0.215813
  842 Fit       0.211632
  843 Fit       0.215825
  844 Fit       0.216725
  845 Fit       0.216772
  846 Fit       0.216601
  847 Fit       0.220965
  848 Fit       0.212066
  849 Fit       0.213528
  850 Fit       0.222119
  851 Fit       0.222494
  852 Fit       0.221695
  853 Fit       0.212662
  854 Fit       0.225427
  855 Fit       0.222462
  856 Fit       0.227145
  857 Fit       0.217098
  858 Fit       0.215673
  859 Fit       0.234888
  860 Fit       0.221247
  861 Fit       0.215926
  862 Fit       0.219418
  863 Fit       0.235020
  864 Fit       0.223892
  865 Fit       0.224968
  866 Fit       0.240373
  867 Fit       0.210534
  868 Fit       0.213739
  869 Fit       0.205733
  870 Fit       0.211157
  871 Fit       0.213420
  872 Fit       0.206270
  873 Fit       0.208557
  874 Fit       0.217255
  875 Fit       0.238237
  876 Fit       0.215860
  877 Fit       0.208218
  878 Fit       0.217327
  879 Fit       0.233828
  880 Fit       0.219332
  881 Fit       0.233970
  882 Fit       0.183040
  883 Fit       0.177963
  884 Fit       0.183299
  885 Fit       0.184836
  886 Fit       0.180287
  887 Fit       0.180390
  888 Fit       0.185155
  889 Fit       0.198438
  890 Fit       0.193427
  891 Fit       0.193007
  892 Fit       0.197994
  893 Fit       0.207517
  894 Fit       0.192297
  895 Fit       0.200737
  896 Fit       0.189567
  897 Fit       0.194312
  898 Fit       0.195522
  899 Fit       0.196978
  900 Fit       0.204498
  901 Fit       0.215427
  902 Fit       0.212684
  903 Fit       0.217905
  904 Fit       0.189546
  905 Fit       0.196709
  906 Fit       0.187984
  907 Fit       0.184716
  908 Fit       0.213947
  909 Fit       0.203294
  910 Fit       0.194583
  911 Fit       0.189662
  912 Fit       0.189873
  913 Fit       0.215221
  914 Fit       0.207797
  915 Fit       0.205793
  916 Fit       0.198795
  917 Fit       0.181847
  918 Fit       0.181188
  919 Fit       0.191195
  920 Fit       0.175840
  921 Fit       0.175666
  922 Fit       0.183461
  923 Fit       0.180967
  924 Fit       0.177744
  925 Fit       0.185017
  926 Fit       0.198692
  927 Fit       0.221617
  928 Fit       0.197562
  929 Fit       0.186064
  930 Fit       0.185200
  931 Fit       0.199862
  932 Fit       0.185734
  933 Fit       0.180306
  934 Fit       0.183733
  935 Fit       0.216194
  936 Fit       0.194972
  937 Fit       0.185311
  938 Fit       0.214809
  939 Fit       0.196118
  940 Fit       0.185373
  941 Fit       0.181192
  942 Fit       0.182831
  943 Fit       0.190882
  944 Fit       0.210970
  945 Fit       0.193127
  946 Fit       0.182738
  947 Fit       0.185017
  948 Fit       0.199984
  949 Fit       0.215435
  950 Fit       0.193242
  951 Fit       0.201264
  952 Fit       0.199631
  953 Fit       0.186050
  954 Fit       0.184555
  955 Fit       0.190858
  956 Fit       0.180127
  957 Fit       0.178415
  958 Fit       0.185058
  959 Fit       0.191014
  960 Fit       0.181138
  961 Fit       0.182066
  962 Fit       0.198001
  963 Fit       0.188756
  964 Fit       0.186946
  965 Fit       0.191691
  966 Fit       0.203186
  967 Fit       0.220394
  968 Fit       0.213091
  969 Fit       0.217460
  970 Fit       0.205031
  971 Fit       0.190065
  972 Fit       0.187718
  973 Fit       0.197925
  974 Fit       0.197037
  975 Fit       0.207649
  976 Fit       0.219057
  977 Fit       0.195196
  978 Fit       0.195939
  979 Fit       0.208498
  980 Fit       0.190768
  981 Fit       0.197532
  982 Fit       0.214653
  983 Fit       0.196666
  984 Fit       0.208638
  985 Fit       0.225186
  986 Fit       0.208335
  987 Fit       0.192050
  988 Fit       0.214274
  989 Fit       0.200983
  990 Fit       0.210962
  991 Fit       0.227253
  992 Fit       0.204221
  993 Fit       0.198756
  994 Fit       0.206279
  995 Fit       0.222161
  996 Fit       0.234270
  997 Fit       0.224865
  998 Fit       0.211004
  999 Fit       0.156214
 1000 Fit       0.179286
 1001 Fit       0.190717
 1002 Fit       0.151421
 1003 Fit       0.148644
 1004 Fit       0.148069
 1005 Fit       0.150875
 1006 Fit       0.204122
 1007 Fit       0.155429
 1008 Fit       0.150610
 1009 Fit       0.155840
 1010 Fit       0.168215
 1011 Fit       0.188377
 1012 Fit       0.163482
 1013 Fit       0.155877
 1014 Fit       0.165926
 1015 Fit       0.182404
 1016 Fit       0.200298
 1017 Fit       0.153392
 1018 Fit       0.159555
 1019 Fit       0.172332
 1020 Fit       0.191238
 1021 Fit       0.212850
 1022 Fit       0.158051
 1023 Fit       0.160605
 1024 Fit       0.172158
 1025 Fit       0.191815
 1026 Fit       0.176993
 1027 Fit       0.203397
 1028 Fit       0.150096
 1029 Fit       0.146857
 1030 Fit       0.150170
 1031 Fit       0.145178
 1032 Fit       0.145461
 1033 Fit       0.151406
 1034 Fit       0.161743
 1035 Fit       0.154509
 1036 Fit       0.148652
 1037 Fit       0.149636
 1038 Fit       0.158002
 1039 Fit       0.168790
 1040 Fit       0.163054
 1041 Fit       0.158699
 1042 Fit       0.171989
 1043 Fit       0.184045
 1044 Fit       0.178380
 1045 Fit       0.148693
 1046 Fit       0.143405
 1047 Fit       0.146350
 1048 Fit       0.154018
 1049 Fit       0.161405
 1050 Fit       0.144598
 1051 Fit       0.145065
 1052 Fit       0.148235
 1053 Fit       0.154853
 1054 Fit       0.208307
 1055 Fit       0.219758
 1056 Fit       0.209435
 1057 Fit       0.199955
 1058 Fit       0.203140
 1059 Fit       0.196170
 1060 Fit       0.193281
 1061 Fit       0.196577
 1062 Fit       0.192266
 1063 Fit       0.202665
 1064 Fit       0.198415
 1065 Fit       0.197698
 1066 Fit       0.206559
 1067 Fit       0.212111
 1068 Fit       0.231001
 1069 Fit       0.220112
 1070 Fit       0.182999
 1071 Fit       0.196704
 1072 Fit       0.141352
 1073 Fit       0.134684
 1074 Fit       0.134572
 1075 Fit       0.144474
 1076 Fit       0.155727
 1077 Fit       0.158290
 1078 Fit       0.147752
 1079 Fit       0.134378
 1080 Fit       0.131638
 1081 Fit       0.138285
 1082 Fit       0.156617
 1083 Fit       0.168093
 1084 Fit       0.180122
 1085 Fit       0.188487
 1086 Fit       0.166375
 1087 Fit       0.146853
 1088 Fit       0.140236
 1089 Fit       0.136465
 1090 Fit       0.155554
 1091 Fit       0.153061
 1092 Fit       0.147939
 1093 Fit       0.171395
 1094 Fit       0.174194
 1095 Fit       0.214904
 1096 Fit       0.219485
 1097 Fit       0.227330
 1098 Fit       0.213478
 1099 Fit       0.220273
 1100 Fit       0.214394
 1101 Fit       0.227298
 1102 Fit       0.221629
 1103 Fit       0.211612
 1104 Fit       0.188061
 1105 Fit       0.172189
 1106 Fit       0.173982
 1107 Fit       0.169701
 1108 Fit       0.203386
 1109 Fit       0.187329
 1110 Fit       0.176953
 1111 Fit       0.171368
 1112 Fit       0.170335
 1113 Fit       0.173746
 1114 Fit       0.194059
 1115 Fit       0.184415
 1116 Fit       0.178342
 1117 Fit       0.182414
 1118 Fit       0.175598
 1119 Fit       0.179671
 1120 Fit       0.175829
 1121 Fit       0.176813
 1122 Fit       0.183211
 1123 Fit       0.195453
 1124 Fit       0.177188
 1125 Fit       0.184841
 1126 Fit       0.181017
 1127 Fit       0.175664
 1128 Fit       0.174379
 1129 Fit       0.177132
 1130 Fit       0.183222
 1131 Fit       0.197660
 1132 Fit       0.176632
 1133 Fit       0.178755
 1134 Fit       0.183420
 1135 Fit       0.186265
 1136 Fit       0.193395
 1137 Fit       0.196450
 1138 Fit       0.170519
 1139 Fit       0.197171
 1140 Fit       0.185435
 1141 Fit       0.173361
 1142 Fit       0.185723
 1143 Fit       0.185594
 1144 Fit       0.215969
 1145 Fit       0.215182
 1146 Fit       0.222210
 1147 Fit       0.220244
 1148 Fit       0.222040
 1149 Fit       0.221896
 1150 Fit       0.206505
 1151 Fit       0.211247
 1152 Fit       0.216895
 1153 Fit       0.215176
 1154 Fit       0.209994
 1155 Fit       0.207645
 1156 Fit       0.206659
 1157 Fit       0.215002
 1158 Fit       0.215299
 1159 Fit       0.211465
 1160 Fit       0.209566
 1161 Fit       0.210253
 1162 Fit       0.207836
 1163 Fit       0.223151
 1164 Fit       0.211489
 1165 Fit       0.210235
 1166 Fit       0.226862
 1167 Fit       0.215323
 1168 Fit       0.225328
 1169 Fit       0.191602
 1170 Fit       0.189358
 1171 Fit       0.186128
 1172 Fit       0.198698
 1173 Fit       0.203747
 1174 Fit       0.197749
 1175 Fit       0.196606
 1176 Fit       0.205078
 1177 Fit       0.208122
 1178 Fit       0.205977
 1179 Fit       0.214752
 1180 Fit       0.203624
 1181 Fit       0.215073
 1182 Fit       0.208298
 1183 Fit       0.212722
 1184 Fit       0.215199
 1185 Fit       0.218869
 1186 Fit       0.221368
 1187 Fit       0.213131
 1188 Fit       0.218586
 1189 Fit       0.217022
 1190 Fit       0.226772
 1191 Fit       0.216591
 1192 Fit       0.210064
 1193 Fit       0.207320
 1194 Fit       0.210051
 1195 Fit       0.207780
 1196 Fit       0.212085
 1197 Fit       0.205326
 1198 Fit       0.212932
 1199 Fit       0.208735
 1200 Fit       0.213390
 1201 Fit       0.206949
 1202 Fit       0.212798
 1203 Fit       0.208411
 1204 Fit       0.218050
 1205 Fit       0.216068
 1206 Fit       0.219266
 1207 Fit       0.203943
 1208 Fit       0.203920
 1209 Fit       0.204902
 1210 Fit       0.203182
 1211 Fit       0.212453
 1212 Fit       0.213227
 1213 Fit       0.208716
 1214 Fit       0.210748
 1215 Fit       0.216134
 1216 Fit       0.207576
 1217 Fit       0.212416
 1218 Fit       0.209476
 1219 Fit       0.203351
 1220 Fit       0.211789
 1221 Fit       0.203829
 1222 Fit       0.210473
 1223 Fit       0.210227
 1224 Fit       0.207084
 1225 Fit       0.205950
 1226 Fit       0.225712
 1227 Fit       0.211418
 1228 Fit       0.203688
 1229 Fit       0.203902
 1230 Fit       0.210326
 1231 Fit       0.211564
 1232 Fit       0.212060
 1233 Fit       0.204157
 1234 Fit       0.214176
 1235 Fit       0.215175
 1236 Fit       0.205466
 1237 Fit       0.203803
 1238 Fit       0.215787
 1239 Fit       0.205540
 1240 Fit       0.201998
 1241 Fit       0.219129
 1242 Fit       0.208332
 1243 Fit       0.205273
 1244 Fit       0.225121
 1245 Fit       0.214356
 1246 Fit       0.193760
 1247 Fit       0.197251
 1248 Fit       0.201284
 1249 Fit       0.194725
 1250 Fit       0.193490
 1251 Fit       0.199333
 1252 Fit       0.198082
 1253 Fit       0.193118
 1254 Fit       0.197754
 1255 Fit       0.206509
 1256 Fit       0.226198
 1257 Fit       0.203697
 1258 Fit       0.197030
 1259 Fit       0.206682
 1260 Fit       0.221947
 1261 Fit       0.208295
 1262 Fit       0.221999
 1263 Fit       0.174973
 1264 Fit       0.170269
 1265 Fit       0.175291
 1266 Fit       0.174598
 1267 Fit       0.170187
 1268 Fit       0.170329
 1269 Fit       0.174999
 1270 Fit       0.184179
 1271 Fit       0.178611
 1272 Fit       0.176669
 1273 Fit       0.178536
 1274 Fit       0.184332
 1275 Fit       0.193635
 1276 Fit       0.191100
 1277 Fit       0.181251
 1278 Fit       0.185414
 1279 Fit       0.184754
 1280 Fit       0.186116
 1281 Fit       0.192881
 1282 Fit       0.202127
 1283 Fit       0.196497
 1284 Fit       0.202862
 1285 Fit       0.187534
 1286 Fit       0.179575
 1287 Fit       0.176617
 1288 Fit       0.201358
 1289 Fit       0.191595
 1290 Fit       0.183538
 1291 Fit       0.178999
 1292 Fit       0.179265
 1293 Fit       0.210806
 1294 Fit       0.199710
 1295 Fit       0.192009
 1296 Fit       0.188527
 1297 Fit       0.189174
 1298 Fit       0.176740
 1299 Fit       0.176051
 1300 Fit       0.185831
 1301 Fit       0.170517
 1302 Fit       0.167635
 1303 Fit       0.171463
 1304 Fit       0.183009
 1305 Fit       0.170225
 1306 Fit       0.166599
 1307 Fit       0.169704
 1308 Fit       0.180337
 1309 Fit       0.171897
 1310 Fit       0.178411
 1311 Fit       0.193953
 1312 Fit       0.191799
 1313 Fit       0.180655
 1314 Fit       0.179815
 1315 Fit       0.196162
 1316 Fit       0.180906
 1317 Fit       0.173611
 1318 Fit       0.173525
 1319 Fit       0.195075
 1320 Fit       0.180317
 1321 Fit       0.173506
 1322 Fit       0.189297
 1323 Fit       0.180074
 1324 Fit       0.203715
 1325 Fit       0.186734
 1326 Fit       0.176386
 1327 Fit       0.172157
 1328 Fit       0.173552
 1329 Fit       0.180902
 1330 Fit       0.200236
 1331 Fit       0.185015
 1332 Fit       0.175486
 1333 Fit       0.177412
 1334 Fit       0.190335
 1335 Fit       0.203504
 1336 Fit       0.185148
 1337 Fit       0.194176
 1338 Fit       0.180941
 1339 Fit       0.179568
 1340 Fit       0.177317
 1341 Fit       0.171433
 1342 Fit       0.172718
 1343 Fit       0.174826
 1344 Fit       0.169831
 1345 Fit       0.171805
 1346 Fit       0.183731
 1347 Fit       0.174946
 1348 Fit       0.187311
 1349 Fit       0.179151
 1350 Fit       0.177712
 1351 Fit       0.182485
 1352 Fit       0.193480
 1353 Fit       0.209239
 1354 Fit       0.202829
 1355 Fit       0.205667
 1356 Fit       0.194751
 1357 Fit       0.182182
 1358 Fit       0.180327
 1359 Fit       0.189714
 1360 Fit       0.188887
 1361 Fit       0.189630
 1362 Fit       0.190394
 1363 Fit       0.202366
 1364 Fit       0.184064
 1365 Fit       0.193060
 1366 Fit       0.210950
 1367 Fit       0.184512
 1368 Fit       0.193314
 1369 Fit       0.202760
 1370 Fit       0.201277
 1371 Fit       0.214065
 1372 Fit       0.198758
 1373 Fit       0.185889
 1374 Fit       0.205645
 1375 Fit       0.220675
 1376 Fit       0.191225
 1377 Fit       0.201342
 1378 Fit       0.216923
 1379 Fit       0.195590
 1380 Fit       0.190218
 1381 Fit       0.197029
 1382 Fit       0.211253
 1383 Fit       0.220977
 1384 Fit       0.212871
 1385 Fit       0.201330
 1386 Fit       0.149880
 1387 Fit       0.159656
 1388 Fit       0.172601
 1389 Fit       0.182799
 1390 Fit       0.141630
 1391 Fit       0.140914
 1392 Fit       0.142931
 1393 Fit       0.148732
 1394 Fit       0.188565
 1395 Fit       0.141394
 1396 Fit       0.141829
 1397 Fit       0.145981
 1398 Fit       0.154926
 1399 Fit       0.144431
 1400 Fit       0.148121
 1401 Fit       0.163530
 1402 Fit       0.182405
 1403 Fit       0.151166
 1404 Fit       0.160867
 1405 Fit       0.176807
 1406 Fit       0.146688
 1407 Fit       0.150839
 1408 Fit       0.160998
 1409 Fit       0.177230
 1410 Fit       0.198327
 1411 Fit       0.148427
 1412 Fit       0.152792
 1413 Fit       0.163393
 1414 Fit       0.180430
 1415 Fit       0.203059
 1416 Fit       0.157515
 1417 Fit       0.168950
 1418 Fit       0.188850
 1419 Fit       0.174172
 1420 Fit       0.144086
 1421 Fit       0.139474
 1422 Fit       0.139600
 1423 Fit       0.154344
 1424 Fit       0.145982
 1425 Fit       0.140449
 1426 Fit       0.139819
 1427 Fit       0.143989
 1428 Fit       0.157874
 1429 Fit       0.150891
 1430 Fit       0.144879
 1431 Fit       0.145842
 1432 Fit       0.154080
 1433 Fit       0.165363
 1434 Fit       0.159478
 1435 Fit       0.155338
 1436 Fit       0.168071
 1437 Fit       0.179539
 1438 Fit       0.173780
 1439 Fit       0.144270
 1440 Fit       0.138879
 1441 Fit       0.141214
 1442 Fit       0.148527
 1443 Fit       0.155654
 1444 Fit       0.138662
 1445 Fit       0.138779
 1446 Fit       0.141587
 1447 Fit       0.147879
 1448 Fit       0.175155
 1449 Fit       0.143558
 -----------------------------------------------------------------
 Leave Link  602 at Sun May 31 21:50:09 2026, MaxMem=    67108864 cpu:               1.4 elap:               0.1
 (Enter /software/local/apps/gaussian-16.0/g16/l9999.exe)

 Test job not archived.
 1\1\GINC-BP1-COMPUTE077\SP\RHF\6-31G(d)\C10H25N3O1(2+)\XV24323\31-May-
 2026\0\\#p hf/6-31g(d) SCF=Tight Pop=MK IOp(6/33=2)\\KM3_nterm\\2,1\N,
 0,3.504854,-2.118964,-0.050786\C,0,2.588578,-1.012095,-0.547342\C,0,3.
 222066,0.244457,0.118206\O,0,3.755888,0.06589,1.215463\C,0,1.16035,-1.
 299105,-0.036304\C,0,0.107611,-0.264925,-0.47787\C,0,-1.297475,-0.6344
 15,0.049559\C,0,-2.322795,0.417638,-0.387911\N,0,-3.769621,0.19205,0.0
 63558\C,0,-4.602608,1.338266,-0.471506\C,0,-4.321129,-1.100741,-0.4894
 19\C,0,-3.878699,0.181986,1.57009\H,0,3.83289,-1.757921,0.881165\H,0,2
 .63393,-0.999265,-1.639613\H,0,0.85945,-2.291278,-0.399917\H,0,1.19445
 7,-1.345067,1.059991\H,0,0.387998,0.728582,-0.108754\H,0,0.083707,-0.2
 07261,-1.574533\H,0,-1.572737,-1.623951,-0.332316\H,0,-1.257494,-0.703
 185,1.142403\H,0,-2.049034,1.403812,-0.001879\H,0,-2.366026,0.482399,-
 1.479045\H,0,3.042082,-3.028693,0.048816\H,0,4.333765,-2.244256,-0.644
 539\H,0,-4.933196,0.112679,1.840814\H,0,-3.343998,-0.678954,1.969549\H
 ,0,-3.456695,1.108613,1.962675\H,0,-5.638052,1.194465,-0.160183\H,0,-4
 .219583,2.275623,-0.0655\H,0,-4.539795,1.34512,-1.56064\H,0,-5.375418,
 -1.172059,-0.218417\H,0,-4.218709,-1.094271,-1.575856\H,0,-3.778454,-1
 .942416,-0.06071\N,0,3.119655,1.410997,-0.528081\H,0,2.755339,1.417474
 ,-1.472868\C,0,3.692645,2.662109,-0.009815\H,0,2.951584,3.46157,-0.079
 603\H,0,4.580858,2.937291,-0.585588\H,0,3.970549,2.50619,1.031875\\Ver
 sion=ES64L-G16RevC.01\State=1-A\HF=-630.949129\RMSD=9.815e-09\Dipole=-
 1.3664147,-1.7636142,-1.3728104\Quadrupole=52.1882201,-15.5744084,-36.
 6138117,-15.9446501,-10.7812983,-0.4565233\PG=C01 [X(C10H25N3O1)]\\@


 SUPPORT THE RIGHT TO ARM BEARS!
 (ADD A CLAWS TO THE BILL OF RIGHTS)
 Job cpu time:       0 days  0 hours  2 minutes  7.5 seconds.
 Elapsed time:       0 days  0 hours  0 minutes  8.4 seconds.
 File lengths (MBytes):  RWF=    160 Int=      0 D2E=      0 Chk=     16 Scr=     16
 Normal termination of Gaussian 16 at Sun May 31 21:50:09 2026.
