 Entering Gaussian System, Link 0=g16
 Initial command:
 /software/local/apps/gaussian-16.0/g16/l1.exe "KM3/nterm/Gau-3287464.inp" -scrdir="KM3/nterm/"
 Entering Link 1 = /software/local/apps/gaussian-16.0/g16/l1.exe PID=   3287465.
  
 Copyright (c) 1988-2019, Gaussian, Inc.  All Rights Reserved.
  
 This is part of the Gaussian(R) 16 program.  It is based on
 the Gaussian(R) 09 system (copyright 2009, Gaussian, Inc.),
 the Gaussian(R) 03 system (copyright 2003, Gaussian, Inc.),
 the Gaussian(R) 98 system (copyright 1998, Gaussian, Inc.),
 the Gaussian(R) 94 system (copyright 1995, Gaussian, Inc.),
 the Gaussian 92(TM) system (copyright 1992, Gaussian, Inc.),
 the Gaussian 90(TM) system (copyright 1990, Gaussian, Inc.),
 the Gaussian 88(TM) system (copyright 1988, Gaussian, Inc.),
 the Gaussian 86(TM) system (copyright 1986, Carnegie Mellon
 University), and the Gaussian 82(TM) system (copyright 1983,
 Carnegie Mellon University). Gaussian is a federally registered
 trademark of Gaussian, Inc.
  
 This software contains proprietary and confidential information,
 including trade secrets, belonging to Gaussian, Inc.
  
 This software is provided under written license and may be
 used, copied, transmitted, or stored only in accord with that
 written license.
  
 The following legend is applicable only to US Government
 contracts under FAR:
  
                    RESTRICTED RIGHTS LEGEND
  
 Use, reproduction and disclosure by the US Government is
 subject to restrictions as set forth in subparagraphs (a)
 and (c) of the Commercial Computer Software - Restricted
 Rights clause in FAR 52.227-19.
  
 Gaussian, Inc.
 340 Quinnipiac St., Bldg. 40, Wallingford CT 06492
  
  
 ---------------------------------------------------------------
 Warning -- This program may not be used in any manner that
 competes with the business of Gaussian, Inc. or will provide
 assistance to any competitor of Gaussian, Inc.  The licensee
 of this program is prohibited from giving any competitor of
 Gaussian, Inc. access to this program.  By using this program,
 the user acknowledges that Gaussian, Inc. is engaged in the
 business of creating and licensing software in the field of
 computational chemistry and represents and warrants to the
 licensee that it is not a competitor of Gaussian, Inc. and that
 it will not use this program in any manner prohibited above.
 ---------------------------------------------------------------
  

 Cite this work as:
 Gaussian 16, Revision C.01,
 M. J. Frisch, G. W. Trucks, H. B. Schlegel, G. E. Scuseria, 
 M. A. Robb, J. R. Cheeseman, G. Scalmani, V. Barone, 
 G. A. Petersson, H. Nakatsuji, X. Li, M. Caricato, A. V. Marenich, 
 J. Bloino, B. G. Janesko, R. Gomperts, B. Mennucci, H. P. Hratchian, 
 J. V. Ortiz, A. F. Izmaylov, J. L. Sonnenberg, D. Williams-Young, 
 F. Ding, F. Lipparini, F. Egidi, J. Goings, B. Peng, A. Petrone, 
 T. Henderson, D. Ranasinghe, V. G. Zakrzewski, J. Gao, N. Rega, 
 G. Zheng, W. Liang, M. Hada, M. Ehara, K. Toyota, R. Fukuda, 
 J. Hasegawa, M. Ishida, T. Nakajima, Y. Honda, O. Kitao, H. Nakai, 
 T. Vreven, K. Throssell, J. A. Montgomery, Jr., J. E. Peralta, 
 F. Ogliaro, M. J. Bearpark, J. J. Heyd, E. N. Brothers, K. N. Kudin, 
 V. N. Staroverov, T. A. Keith, R. Kobayashi, J. Normand, 
 K. Raghavachari, A. P. Rendell, J. C. Burant, S. S. Iyengar, 
 J. Tomasi, M. Cossi, J. M. Millam, M. Klene, C. Adamo, R. Cammi, 
 J. W. Ochterski, R. L. Martin, K. Morokuma, O. Farkas, 
 J. B. Foresman, and D. J. Fox, Gaussian, Inc., Wallingford CT, 2019.
 
 ******************************************
 Gaussian 16:  ES64L-G16RevC.01  3-Jul-2019
                31-May-2026 
 ******************************************
 %nprocshared=16
 Will use up to   16 processors via shared memory.
 %mem=512MB
 %chk=KM3_nterm_opt.chk
 -------------------
 #P b3lyp/6-31g* opt
 -------------------
 1/18=20,19=15,26=3,38=1/1,3;
 2/9=110,12=2,17=6,18=5,40=1/2;
 3/5=1,6=6,7=1,11=2,25=1,30=1,71=1,74=-5/1,2,3;
 4//1;
 5/5=2,38=5/2;
 6/7=2,8=2,9=2,10=2,28=1/1;
 7//1,2,3,16;
 1/18=20,19=15,26=3/3(2);
 2/9=110/2;
 99//99;
 2/9=110/2;
 3/5=1,6=6,7=1,11=2,25=1,30=1,71=1,74=-5/1,2,3;
 4/5=5,16=3,69=1/1;
 5/5=2,38=5/2;
 7//1,2,3,16;
 1/18=20,19=15,26=3/3(-5);
 2/9=110/2;
 6/7=2,8=2,9=2,10=2,19=2,28=1/1;
 99/9=1/99;
 Leave Link    1 at Sun May 31 21:38:53 2026, MaxMem=    67108864 cpu:               5.2 elap:               0.4
 (Enter /software/local/apps/gaussian-16.0/g16/l101.exe)
 --------------------------------------------
 KM3_nterm b3lyp/6-31g* geometry optimisation
 --------------------------------------------
 Symbolic Z-matrix:
 Charge =  2 Multiplicity = 1
 N                     21.362    4.712     5.69 
 C                     21.611    5.728     4.679 
 C                     22.926    5.413     3.952 
 O                     23.598    4.426     4.253 
 C                     21.608    7.103     5.352 
 C                     21.681    8.266     4.357 
 C                     21.731    9.655     5.005 
 C                     21.805    10.833    4.024 
 N                     21.851    12.142    4.698 
 C                     21.922    13.247    3.656 
 C                     20.6      12.323    5.543 
 C                     23.079    12.21     5.592 
 H                     22.046    3.974     5.779 
 H                     20.758    5.785     4.002 
 H                     20.692    7.224     5.93 
 H                     22.469    7.185     6.015 
 H                     22.579    8.168     3.748 
 H                     20.802    8.249     3.712 
 H                     20.836    9.808     5.607 
 H                     22.613    9.727     5.642 
 H                     22.703    10.743    3.414 
 H                     20.926    10.824    3.379 
 H                     21.313    5.147     6.6 
 H                     20.466    4.288     5.496 
 H                     23.113    13.178    6.09 
 H                     23.029    11.418    6.339 
 H                     23.976    12.081    4.987 
 H                     21.956    14.215    4.155 
 H                     22.819    13.118    3.051 
 H                     21.041    13.2      3.016 
 H                     20.635    13.291    6.041 
 H                     19.719    12.275    4.903 
 H                     20.549    11.531    6.291 
 N                     23.348    6.222     2.978 
 H                     22.791    7.03      2.736 
 C                     24.586    5.946     2.277 
 H                     25.43     6.199     2.918 
 H                     24.629    6.544     1.366 
 H                     24.629    4.888     2.018 
 
 ITRead=  0  0  0  0  0  0  0  0  0  0  0  0  0  0  0  0  0  0  0  0
 ITRead=  0  0  0  0  0  0  0  0  0  0  0  0  0  0  0  0  0  0  0
 MicOpt= -1 -1 -1 -1 -1 -1 -1 -1 -1 -1 -1 -1 -1 -1 -1 -1 -1 -1 -1 -1
 MicOpt= -1 -1 -1 -1 -1 -1 -1 -1 -1 -1 -1 -1 -1 -1 -1 -1 -1 -1 -1
 NAtoms=     39 NQM=       39 NQMF=       0 NMMI=      0 NMMIF=      0
                NMic=       0 NMicF=      0.
                    Isotopes and Nuclear Properties:
 (Nuclear quadrupole moments (NQMom) in fm**2, nuclear magnetic moments (NMagM)
  in nuclear magnetons)

  Atom         1           2           3           4           5           6           7           8           9          10
 IAtWgt=          14          12          12          16          12          12          12          12          14          12
 AtmWgt=  14.0030740  12.0000000  12.0000000  15.9949146  12.0000000  12.0000000  12.0000000  12.0000000  14.0030740  12.0000000
 NucSpn=           2           0           0           0           0           0           0           0           2           0
 AtZEff=  -0.0000000  -0.0000000  -0.0000000  -0.0000000  -0.0000000  -0.0000000  -0.0000000  -0.0000000  -0.0000000  -0.0000000
 NQMom=    2.0440000   0.0000000   0.0000000   0.0000000   0.0000000   0.0000000   0.0000000   0.0000000   2.0440000   0.0000000
 NMagM=    0.4037610   0.0000000   0.0000000   0.0000000   0.0000000   0.0000000   0.0000000   0.0000000   0.4037610   0.0000000
 AtZNuc=   7.0000000   6.0000000   6.0000000   8.0000000   6.0000000   6.0000000   6.0000000   6.0000000   7.0000000   6.0000000

  Atom        11          12          13          14          15          16          17          18          19          20
 IAtWgt=          12          12           1           1           1           1           1           1           1           1
 AtmWgt=  12.0000000  12.0000000   1.0078250   1.0078250   1.0078250   1.0078250   1.0078250   1.0078250   1.0078250   1.0078250
 NucSpn=           0           0           1           1           1           1           1           1           1           1
 AtZEff=  -0.0000000  -0.0000000  -0.0000000  -0.0000000  -0.0000000  -0.0000000  -0.0000000  -0.0000000  -0.0000000  -0.0000000
 NQMom=    0.0000000   0.0000000   0.0000000   0.0000000   0.0000000   0.0000000   0.0000000   0.0000000   0.0000000   0.0000000
 NMagM=    0.0000000   0.0000000   2.7928460   2.7928460   2.7928460   2.7928460   2.7928460   2.7928460   2.7928460   2.7928460
 AtZNuc=   6.0000000   6.0000000   1.0000000   1.0000000   1.0000000   1.0000000   1.0000000   1.0000000   1.0000000   1.0000000

  Atom        21          22          23          24          25          26          27          28          29          30
 IAtWgt=           1           1           1           1           1           1           1           1           1           1
 AtmWgt=   1.0078250   1.0078250   1.0078250   1.0078250   1.0078250   1.0078250   1.0078250   1.0078250   1.0078250   1.0078250
 NucSpn=           1           1           1           1           1           1           1           1           1           1
 AtZEff=  -0.0000000  -0.0000000  -0.0000000  -0.0000000  -0.0000000  -0.0000000  -0.0000000  -0.0000000  -0.0000000  -0.0000000
 NQMom=    0.0000000   0.0000000   0.0000000   0.0000000   0.0000000   0.0000000   0.0000000   0.0000000   0.0000000   0.0000000
 NMagM=    2.7928460   2.7928460   2.7928460   2.7928460   2.7928460   2.7928460   2.7928460   2.7928460   2.7928460   2.7928460
 AtZNuc=   1.0000000   1.0000000   1.0000000   1.0000000   1.0000000   1.0000000   1.0000000   1.0000000   1.0000000   1.0000000

  Atom        31          32          33          34          35          36          37          38          39
 IAtWgt=           1           1           1          14           1          12           1           1           1
 AtmWgt=   1.0078250   1.0078250   1.0078250  14.0030740   1.0078250  12.0000000   1.0078250   1.0078250   1.0078250
 NucSpn=           1           1           1           2           1           0           1           1           1
 AtZEff=  -0.0000000  -0.0000000  -0.0000000  -0.0000000  -0.0000000  -0.0000000  -0.0000000  -0.0000000  -0.0000000
 NQMom=    0.0000000   0.0000000   0.0000000   2.0440000   0.0000000   0.0000000   0.0000000   0.0000000   0.0000000
 NMagM=    2.7928460   2.7928460   2.7928460   0.4037610   2.7928460   0.0000000   2.7928460   2.7928460   2.7928460
 AtZNuc=   1.0000000   1.0000000   1.0000000   7.0000000   1.0000000   6.0000000   1.0000000   1.0000000   1.0000000
 Leave Link  101 at Sun May 31 21:38:53 2026, MaxMem=    67108864 cpu:               2.3 elap:               0.2
 (Enter /software/local/apps/gaussian-16.0/g16/l103.exe)

 GradGradGradGradGradGradGradGradGradGradGradGradGradGradGradGradGradGrad
 Berny optimization.
 Initialization pass.
                           ----------------------------
                           !    Initial Parameters    !
                           ! (Angstroms and Degrees)  !
 --------------------------                            --------------------------
 ! Name  Definition              Value          Derivative Info.                !
 --------------------------------------------------------------------------------
 ! R1    R(1,2)                  1.4548         estimate D2E/DX2                !
 ! R2    R(1,13)                 1.0102         estimate D2E/DX2                !
 ! R3    R(1,23)                 1.0098         estimate D2E/DX2                !
 ! R4    R(1,24)                 1.0101         estimate D2E/DX2                !
 ! R5    R(2,3)                  1.5352         estimate D2E/DX2                !
 ! R6    R(2,5)                  1.5309         estimate D2E/DX2                !
 ! R7    R(2,14)                 1.0905         estimate D2E/DX2                !
 ! R8    R(3,4)                  1.2314         estimate D2E/DX2                !
 ! R9    R(3,34)                 1.3346         estimate D2E/DX2                !
 ! R10   R(5,6)                  1.5323         estimate D2E/DX2                !
 ! R11   R(5,15)                 1.0899         estimate D2E/DX2                !
 ! R12   R(5,16)                 1.0898         estimate D2E/DX2                !
 ! R13   R(6,7)                  1.5335         estimate D2E/DX2                !
 ! R14   R(6,17)                 1.0894         estimate D2E/DX2                !
 ! R15   R(6,18)                 1.0904         estimate D2E/DX2                !
 ! R16   R(7,8)                  1.5348         estimate D2E/DX2                !
 ! R17   R(7,19)                 1.0894         estimate D2E/DX2                !
 ! R18   R(7,20)                 1.0904         estimate D2E/DX2                !
 ! R19   R(8,9)                  1.473          estimate D2E/DX2                !
 ! R20   R(8,21)                 1.0893         estimate D2E/DX2                !
 ! R21   R(8,22)                 1.0903         estimate D2E/DX2                !
 ! R22   R(9,10)                 1.5205         estimate D2E/DX2                !
 ! R23   R(9,11)                 1.5205         estimate D2E/DX2                !
 ! R24   R(9,12)                 1.5205         estimate D2E/DX2                !
 ! R25   R(10,28)                1.0896         estimate D2E/DX2                !
 ! R26   R(10,29)                1.0896         estimate D2E/DX2                !
 ! R27   R(10,30)                1.0899         estimate D2E/DX2                !
 ! R28   R(11,31)                1.0892         estimate D2E/DX2                !
 ! R29   R(11,32)                1.09           estimate D2E/DX2                !
 ! R30   R(11,33)                1.0906         estimate D2E/DX2                !
 ! R31   R(12,25)                1.0891         estimate D2E/DX2                !
 ! R32   R(12,26)                1.0898         estimate D2E/DX2                !
 ! R33   R(12,27)                1.0896         estimate D2E/DX2                !
 ! R34   R(34,35)                1.0108         estimate D2E/DX2                !
 ! R35   R(34,36)                1.4492         estimate D2E/DX2                !
 ! R36   R(36,37)                1.0896         estimate D2E/DX2                !
 ! R37   R(36,38)                1.0906         estimate D2E/DX2                !
 ! R38   R(36,39)                1.0901         estimate D2E/DX2                !
 ! A1    A(2,1,13)             117.101          estimate D2E/DX2                !
 ! A2    A(2,1,23)             109.4946         estimate D2E/DX2                !
 ! A3    A(2,1,24)             108.1509         estimate D2E/DX2                !
 ! A4    A(13,1,23)            105.5556         estimate D2E/DX2                !
 ! A5    A(13,1,24)            108.1134         estimate D2E/DX2                !
 ! A6    A(23,1,24)            108.1114         estimate D2E/DX2                !
 ! A7    A(1,2,3)              109.4144         estimate D2E/DX2                !
 ! A8    A(1,2,5)              108.7495         estimate D2E/DX2                !
 ! A9    A(1,2,14)             109.5153         estimate D2E/DX2                !
 ! A10   A(3,2,5)              113.2126         estimate D2E/DX2                !
 ! A11   A(3,2,14)             112.7517         estimate D2E/DX2                !
 ! A12   A(5,2,14)             102.9701         estimate D2E/DX2                !
 ! A13   A(2,3,4)              121.0734         estimate D2E/DX2                !
 ! A14   A(2,3,34)             119.4751         estimate D2E/DX2                !
 ! A15   A(4,3,34)             119.4515         estimate D2E/DX2                !
 ! A16   A(2,5,6)              113.3379         estimate D2E/DX2                !
 ! A17   A(2,5,15)             109.5432         estimate D2E/DX2                !
 ! A18   A(2,5,16)             109.4808         estimate D2E/DX2                !
 ! A19   A(6,5,15)             107.467          estimate D2E/DX2                !
 ! A20   A(6,5,16)             107.4759         estimate D2E/DX2                !
 ! A21   A(15,5,16)            109.4528         estimate D2E/DX2                !
 ! A22   A(5,6,7)              114.4957         estimate D2E/DX2                !
 ! A23   A(5,6,17)             109.5107         estimate D2E/DX2                !
 ! A24   A(5,6,18)             109.5041         estimate D2E/DX2                !
 ! A25   A(7,6,17)             106.9064         estimate D2E/DX2                !
 ! A26   A(7,6,18)             106.8794         estimate D2E/DX2                !
 ! A27   A(17,6,18)            109.4148         estimate D2E/DX2                !
 ! A28   A(6,7,8)              115.2573         estimate D2E/DX2                !
 ! A29   A(6,7,19)             109.5067         estimate D2E/DX2                !
 ! A30   A(6,7,20)             109.4537         estimate D2E/DX2                !
 ! A31   A(8,7,19)             106.5601         estimate D2E/DX2                !
 ! A32   A(8,7,20)             106.4832         estimate D2E/DX2                !
 ! A33   A(19,7,20)            109.4174         estimate D2E/DX2                !
 ! A34   A(7,8,9)              113.0234         estimate D2E/DX2                !
 ! A35   A(7,8,21)             109.5279         estimate D2E/DX2                !
 ! A36   A(7,8,22)             109.4462         estimate D2E/DX2                !
 ! A37   A(9,8,21)             107.692          estimate D2E/DX2                !
 ! A38   A(9,8,22)             107.6494         estimate D2E/DX2                !
 ! A39   A(21,8,22)            109.4298         estimate D2E/DX2                !
 ! A40   A(8,9,10)             109.4937         estimate D2E/DX2                !
 ! A41   A(8,9,11)             109.5348         estimate D2E/DX2                !
 ! A42   A(8,9,12)             109.5113         estimate D2E/DX2                !
 ! A43   A(10,9,11)            109.4371         estimate D2E/DX2                !
 ! A44   A(10,9,12)            109.4346         estimate D2E/DX2                !
 ! A45   A(11,9,12)            109.4156         estimate D2E/DX2                !
 ! A46   A(9,10,28)            109.4665         estimate D2E/DX2                !
 ! A47   A(9,10,29)            109.4458         estimate D2E/DX2                !
 ! A48   A(9,10,30)            109.4707         estimate D2E/DX2                !
 ! A49   A(28,10,29)           109.4982         estimate D2E/DX2                !
 ! A50   A(28,10,30)           109.4176         estimate D2E/DX2                !
 ! A51   A(29,10,30)           109.5285         estimate D2E/DX2                !
 ! A52   A(9,11,31)            109.4797         estimate D2E/DX2                !
 ! A53   A(9,11,32)            109.4792         estimate D2E/DX2                !
 ! A54   A(9,11,33)            109.4632         estimate D2E/DX2                !
 ! A55   A(31,11,32)           109.4866         estimate D2E/DX2                !
 ! A56   A(31,11,33)           109.4712         estimate D2E/DX2                !
 ! A57   A(32,11,33)           109.4474         estimate D2E/DX2                !
 ! A58   A(9,12,25)            109.5004         estimate D2E/DX2                !
 ! A59   A(9,12,26)            109.4785         estimate D2E/DX2                !
 ! A60   A(9,12,27)            109.4575         estimate D2E/DX2                !
 ! A61   A(25,12,26)           109.5066         estimate D2E/DX2                !
 ! A62   A(25,12,27)           109.4757         estimate D2E/DX2                !
 ! A63   A(26,12,27)           109.4086         estimate D2E/DX2                !
 ! A64   A(3,34,35)            119.015          estimate D2E/DX2                !
 ! A65   A(3,34,36)            120.509          estimate D2E/DX2                !
 ! A66   A(35,34,36)           120.476          estimate D2E/DX2                !
 ! A67   A(34,36,37)           109.4462         estimate D2E/DX2                !
 ! A68   A(34,36,38)           109.47           estimate D2E/DX2                !
 ! A69   A(34,36,39)           109.4793         estimate D2E/DX2                !
 ! A70   A(37,36,38)           109.4848         estimate D2E/DX2                !
 ! A71   A(37,36,39)           109.547          estimate D2E/DX2                !
 ! A72   A(38,36,39)           109.4001         estimate D2E/DX2                !
 ! D1    D(13,1,2,3)             0.0421         estimate D2E/DX2                !
 ! D2    D(13,1,2,5)          -124.08           estimate D2E/DX2                !
 ! D3    D(13,1,2,14)          124.095          estimate D2E/DX2                !
 ! D4    D(23,1,2,3)           120.0907         estimate D2E/DX2                !
 ! D5    D(23,1,2,5)            -4.0315         estimate D2E/DX2                !
 ! D6    D(23,1,2,14)         -115.8565         estimate D2E/DX2                !
 ! D7    D(24,1,2,3)          -122.3222         estimate D2E/DX2                !
 ! D8    D(24,1,2,5)           113.5556         estimate D2E/DX2                !
 ! D9    D(24,1,2,14)            1.7307         estimate D2E/DX2                !
 ! D10   D(1,2,3,4)             -0.0674         estimate D2E/DX2                !
 ! D11   D(1,2,3,34)           179.9411         estimate D2E/DX2                !
 ! D12   D(5,2,3,4)            121.3974         estimate D2E/DX2                !
 ! D13   D(5,2,3,34)           -58.594          estimate D2E/DX2                !
 ! D14   D(14,2,3,4)          -122.2004         estimate D2E/DX2                !
 ! D15   D(14,2,3,34)           57.8081         estimate D2E/DX2                !
 ! D16   D(1,2,5,6)           -172.5704         estimate D2E/DX2                !
 ! D17   D(1,2,5,15)           -52.5678         estimate D2E/DX2                !
 ! D18   D(1,2,5,16)            67.4597         estimate D2E/DX2                !
 ! D19   D(3,2,5,6)             65.5917         estimate D2E/DX2                !
 ! D20   D(3,2,5,15)          -174.4058         estimate D2E/DX2                !
 ! D21   D(3,2,5,16)           -54.3783         estimate D2E/DX2                !
 ! D22   D(14,2,5,6)           -56.454          estimate D2E/DX2                !
 ! D23   D(14,2,5,15)           63.5486         estimate D2E/DX2                !
 ! D24   D(14,2,5,16)         -176.4239         estimate D2E/DX2                !
 ! D25   D(2,3,34,35)           -0.04           estimate D2E/DX2                !
 ! D26   D(2,3,34,36)          179.9951         estimate D2E/DX2                !
 ! D27   D(4,3,34,35)          179.9684         estimate D2E/DX2                !
 ! D28   D(4,3,34,36)            0.0035         estimate D2E/DX2                !
 ! D29   D(2,5,6,7)           -177.8883         estimate D2E/DX2                !
 ! D30   D(2,5,6,17)           -57.8561         estimate D2E/DX2                !
 ! D31   D(2,5,6,18)            62.1191         estimate D2E/DX2                !
 ! D32   D(15,5,6,7)            60.9336         estimate D2E/DX2                !
 ! D33   D(15,5,6,17)         -179.0342         estimate D2E/DX2                !
 ! D34   D(15,5,6,18)          -59.0589         estimate D2E/DX2                !
 ! D35   D(16,5,6,7)           -56.7826         estimate D2E/DX2                !
 ! D36   D(16,5,6,17)           63.2496         estimate D2E/DX2                !
 ! D37   D(16,5,6,18)         -176.7751         estimate D2E/DX2                !
 ! D38   D(5,6,7,8)            179.9752         estimate D2E/DX2                !
 ! D39   D(5,6,7,19)           -59.9275         estimate D2E/DX2                !
 ! D40   D(5,6,7,20)            60.0175         estimate D2E/DX2                !
 ! D41   D(17,6,7,8)            58.503          estimate D2E/DX2                !
 ! D42   D(17,6,7,19)          178.6002         estimate D2E/DX2                !
 ! D43   D(17,6,7,20)          -61.4547         estimate D2E/DX2                !
 ! D44   D(18,6,7,8)           -58.5805         estimate D2E/DX2                !
 ! D45   D(18,6,7,19)           61.5168         estimate D2E/DX2                !
 ! D46   D(18,6,7,20)         -178.5381         estimate D2E/DX2                !
 ! D47   D(6,7,8,9)           -179.9921         estimate D2E/DX2                !
 ! D48   D(6,7,8,21)           -59.921          estimate D2E/DX2                !
 ! D49   D(6,7,8,22)            60.0476         estimate D2E/DX2                !
 ! D50   D(19,7,8,9)            58.3074         estimate D2E/DX2                !
 ! D51   D(19,7,8,21)          178.3785         estimate D2E/DX2                !
 ! D52   D(19,7,8,22)          -61.6529         estimate D2E/DX2                !
 ! D53   D(20,7,8,9)           -58.416          estimate D2E/DX2                !
 ! D54   D(20,7,8,21)           61.6551         estimate D2E/DX2                !
 ! D55   D(20,7,8,22)         -178.3763         estimate D2E/DX2                !
 ! D56   D(7,8,9,10)          -179.9634         estimate D2E/DX2                !
 ! D57   D(7,8,9,11)           -59.9524         estimate D2E/DX2                !
 ! D58   D(7,8,9,12)            60.043          estimate D2E/DX2                !
 ! D59   D(21,8,9,10)           58.9198         estimate D2E/DX2                !
 ! D60   D(21,8,9,11)          178.9308         estimate D2E/DX2                !
 ! D61   D(21,8,9,12)          -61.0737         estimate D2E/DX2                !
 ! D62   D(22,8,9,10)          -58.9785         estimate D2E/DX2                !
 ! D63   D(22,8,9,11)           61.0325         estimate D2E/DX2                !
 ! D64   D(22,8,9,12)         -178.972          estimate D2E/DX2                !
 ! D65   D(8,9,10,28)          179.9997         estimate D2E/DX2                !
 ! D66   D(8,9,10,29)          -59.9857         estimate D2E/DX2                !
 ! D67   D(8,9,10,30)           60.0686         estimate D2E/DX2                !
 ! D68   D(11,9,10,28)          59.9289         estimate D2E/DX2                !
 ! D69   D(11,9,10,29)         179.9435         estimate D2E/DX2                !
 ! D70   D(11,9,10,30)         -60.0022         estimate D2E/DX2                !
 ! D71   D(12,9,10,28)         -59.9598         estimate D2E/DX2                !
 ! D72   D(12,9,10,29)          60.0547         estimate D2E/DX2                !
 ! D73   D(12,9,10,30)        -179.891          estimate D2E/DX2                !
 ! D74   D(8,9,11,31)          179.9927         estimate D2E/DX2                !
 ! D75   D(8,9,11,32)          -59.9784         estimate D2E/DX2                !
 ! D76   D(8,9,11,33)           59.9924         estimate D2E/DX2                !
 ! D77   D(10,9,11,31)         -59.9617         estimate D2E/DX2                !
 ! D78   D(10,9,11,32)          60.0671         estimate D2E/DX2                !
 ! D79   D(10,9,11,33)        -179.962          estimate D2E/DX2                !
 ! D80   D(12,9,11,31)          59.9387         estimate D2E/DX2                !
 ! D81   D(12,9,11,32)         179.9676         estimate D2E/DX2                !
 ! D82   D(12,9,11,33)         -60.0616         estimate D2E/DX2                !
 ! D83   D(8,9,12,25)          179.9827         estimate D2E/DX2                !
 ! D84   D(8,9,12,26)          -59.9517         estimate D2E/DX2                !
 ! D85   D(8,9,12,27)           59.9677         estimate D2E/DX2                !
 ! D86   D(10,9,12,25)          59.953          estimate D2E/DX2                !
 ! D87   D(10,9,12,26)        -179.9813         estimate D2E/DX2                !
 ! D88   D(10,9,12,27)         -60.0619         estimate D2E/DX2                !
 ! D89   D(11,9,12,25)         -59.9489         estimate D2E/DX2                !
 ! D90   D(11,9,12,26)          60.1168         estimate D2E/DX2                !
 ! D91   D(11,9,12,27)        -179.9639         estimate D2E/DX2                !
 ! D92   D(3,34,36,37)         -74.824          estimate D2E/DX2                !
 ! D93   D(3,34,36,38)         165.1755         estimate D2E/DX2                !
 ! D94   D(3,34,36,39)          45.2584         estimate D2E/DX2                !
 ! D95   D(35,34,36,37)        105.2116         estimate D2E/DX2                !
 ! D96   D(35,34,36,38)        -14.7889         estimate D2E/DX2                !
 ! D97   D(35,34,36,39)       -134.706          estimate D2E/DX2                !
 --------------------------------------------------------------------------------
 Trust Radius=3.00D-01 FncErr=1.00D-07 GrdErr=1.00D-06 EigMax=2.50D+02 EigMin=1.00D-04
 Number of steps in this run=    217 maximum allowed number of steps=    234.
 GradGradGradGradGradGradGradGradGradGradGradGradGradGradGradGradGradGrad

 Leave Link  103 at Sun May 31 21:38:53 2026, MaxMem=    67108864 cpu:               0.2 elap:               0.0
 (Enter /software/local/apps/gaussian-16.0/g16/l202.exe)
                          Input orientation:                          
 ---------------------------------------------------------------------
 Center     Atomic      Atomic             Coordinates (Angstroms)
 Number     Number       Type             X           Y           Z
 ---------------------------------------------------------------------
      1          7           0       21.362000    4.712000    5.690000
      2          6           0       21.611000    5.728000    4.679000
      3          6           0       22.926000    5.413000    3.952000
      4          8           0       23.598000    4.426000    4.253000
      5          6           0       21.608000    7.103000    5.352000
      6          6           0       21.681000    8.266000    4.357000
      7          6           0       21.731000    9.655000    5.005000
      8          6           0       21.805000   10.833000    4.024000
      9          7           0       21.851000   12.142000    4.698000
     10          6           0       21.922000   13.247000    3.656000
     11          6           0       20.600000   12.323000    5.543000
     12          6           0       23.079000   12.210000    5.592000
     13          1           0       22.046000    3.974000    5.779000
     14          1           0       20.758000    5.785000    4.002000
     15          1           0       20.692000    7.224000    5.930000
     16          1           0       22.469000    7.185000    6.015000
     17          1           0       22.579000    8.168000    3.748000
     18          1           0       20.802000    8.249000    3.712000
     19          1           0       20.836000    9.808000    5.607000
     20          1           0       22.613000    9.727000    5.642000
     21          1           0       22.703000   10.743000    3.414000
     22          1           0       20.926000   10.824000    3.379000
     23          1           0       21.313000    5.147000    6.600000
     24          1           0       20.466000    4.288000    5.496000
     25          1           0       23.113000   13.178000    6.090000
     26          1           0       23.029000   11.418000    6.339000
     27          1           0       23.976000   12.081000    4.987000
     28          1           0       21.956000   14.215000    4.155000
     29          1           0       22.819000   13.118000    3.051000
     30          1           0       21.041000   13.200000    3.016000
     31          1           0       20.635000   13.291000    6.041000
     32          1           0       19.719000   12.275000    4.903000
     33          1           0       20.549000   11.531000    6.291000
     34          7           0       23.348000    6.222000    2.978000
     35          1           0       22.791000    7.030000    2.736000
     36          6           0       24.586000    5.946000    2.277000
     37          1           0       25.430000    6.199000    2.918000
     38          1           0       24.629000    6.544000    1.366000
     39          1           0       24.629000    4.888000    2.018000
 ---------------------------------------------------------------------
                    Distance matrix (angstroms):
                    1          2          3          4          5
     1  N    0.000000
     2  C    1.454778   0.000000
     3  C    2.440930   1.535246   0.000000
     4  O    2.673287   2.413472   1.231403   0.000000
     5  C    2.427270   1.530870   2.559927   3.512012   0.000000
     6  C    3.809142   2.559302   3.139054   4.293170   1.532293
     7  C    5.003862   3.942335   4.531159   5.603002   2.578419
     8  C    6.359123   5.150503   5.535181   6.657097   3.964252
     9  N    7.511863   6.418517   6.855041   7.923805   5.087070
    10  C    8.791870   7.594644   7.903619   8.998635   6.381516
    11  C    7.650462   6.727752   7.462550   8.544865   5.319863
    12  C    7.692704   6.708570   6.993727   7.915361   5.320046
    13  H    1.010159   2.115595   2.486574   2.222990   3.188231
    14  H    2.089375   1.090499   2.200252   3.158399   2.069329
    15  H    2.610870   2.155824   3.490410   4.368749   1.089854
    16  H    2.728883   2.154973   2.757681   3.462855   1.089777
    17  H    4.146853   2.785208   2.784250   3.911004   2.156359
    18  H    4.091021   2.818690   3.551320   4.767140   2.156978
    19  H    5.123747   4.255374   5.140345   6.199023   2.824541
    20  H    5.168900   4.233601   4.643777   5.567778   2.824801
    21  H    6.584179   5.286106   5.361723   6.435016   4.266670
    22  H    6.548844   5.303625   5.797176   6.988409   4.266579
    23  H    1.009815   2.028942   3.111982   3.354024   2.338903
    24  H    1.010063   2.012986   3.114669   3.372465   3.041237
    25  H    8.654430   7.729775   8.056130   8.955853   6.302007
    26  H    6.940499   6.094458   6.462848   7.318690   4.648939
    27  H    7.850437   6.785919   6.829052   7.699394   5.524593
    28  H    9.644484   8.510157   8.857613   9.926242   7.220419
    29  H    8.930174   7.663012   7.758239   8.809229   6.552965
    30  H    8.905024   7.676018   8.066393   9.222337   6.553762
    31  H    8.616900   7.746392   8.466138   9.516540   6.301809
    32  H    7.779318   6.818581   7.633891   8.779291   5.524446
    33  H    6.893543   6.115652   6.967853   7.995678   4.648697
    34  N    3.685002   2.480848   1.334631   2.216696   3.072399
    35  H    4.017621   2.619705   2.027701   3.119832   2.871981
    36  C    4.854431   3.829850   2.417708   2.681626   4.434271
    37  H    5.142351   4.231752   2.820810   2.877843   4.620526
    38  H    5.720707   4.555233   3.296478   3.726078   5.032605
    39  H    4.918114   4.110334   2.629865   2.504322   5.014800
                    6          7          8          9         10
     6  C    0.000000
     7  C    1.533534   0.000000
     8  C    2.591477   1.534771   0.000000
     9  N    3.894683   2.508748   1.473049   0.000000
    10  C    5.035856   3.841711   2.444690   1.520470   0.000000
    11  C    4.362844   2.947343   2.445299   1.520456   2.482384
    12  C    4.362885   2.947829   2.444960   1.520475   2.482361
    13  H    4.536141   5.742130   7.084066   8.241530   9.513729
    14  H    2.670827   4.114564   5.155482   6.487720   7.560162
    15  H    2.130308   2.800876   4.230424   5.200753   6.554426
    16  H    2.130368   2.768690   4.208667   5.166068   6.527782
    17  H    1.089444   2.123752   2.788813   4.150320   5.122143
    18  H    1.090392   2.124082   2.789338   4.150668   5.122259
    19  H    2.157380   1.089421   2.120254   2.702603   4.100307
    20  H    2.157399   1.090356   2.119911   2.702592   4.100253
    21  H    2.840645   2.158659   1.089314   2.081288   2.634111
    22  H    2.840752   2.158347   1.090297   2.081468   2.634326
    23  H    3.859357   4.800085   6.261664   7.268911   8.639908
    24  H    4.312543   5.535882   6.840814   8.015007   9.261167
    25  H    5.402005   3.936836   3.387956   2.145601   2.710645
    26  H    3.959865   2.563694   2.683212   2.145866   3.430624
    27  H    4.496460   3.305424   2.682930   2.145429   2.711094
    28  H    5.958778   4.643999   3.387903   2.145508   1.089578
    29  H    5.151950   4.122406   2.682564   2.145276   1.089621
    30  H    5.152886   4.123014   2.683738   2.145830   1.089940
    31  H    5.401907   3.936370   3.388060   2.145345   2.710448
    32  H    4.496626   3.304988   2.683915   2.145959   2.711642
    33  H    3.960051   2.563259   2.684032   2.146200   3.431182
    34  N    2.976318   4.302198   4.973559   6.343958   7.200263
    35  H    2.321085   3.628028   4.134483   5.555681   6.344498
    36  C    4.260026   5.417535   5.888017   7.192488   7.893234
    37  H    4.516438   5.475592   5.986469   7.162185   7.907276
    38  H    4.538950   5.596342   5.782340   7.082169   7.583018
    39  H    5.056927   6.328101   6.880555   8.217068   8.937772
                   11         12         13         14         15
    11  C    0.000000
    12  C    2.482058   0.000000
    13  H    8.476580   8.302635   0.000000
    14  H    6.719010   7.013969   2.845416   0.000000
    15  H    5.114493   5.538250   3.524006   2.406712   0.000000
    16  H    5.487713   5.079533   3.247329   2.989931   1.779459
    17  H    4.939888   4.470805   4.690276   3.009858   3.035297
    18  H    4.471112   4.940511   4.908732   2.481397   2.445864
    19  H    2.526859   3.286469   5.960641   4.332048   2.608088
    20  H    3.286516   2.526845   5.782497   4.655104   3.168311
    21  H    3.384029   2.652763   7.200294   5.358221   4.770507
    22  H    2.652579   3.384342   7.344175   5.080145   4.418411
    23  H    7.288388   7.349884   1.608496   2.732155   2.269024
    24  H    8.036255   8.342366   1.635569   2.135020   2.976496
    25  H    2.710240   1.089121   9.270859   8.035062   6.429382
    26  H    2.711583   1.089850   7.529477   6.507665   4.818556
    27  H    3.430026   1.089621   8.371118   7.139003   5.938380
    28  H    2.710156   2.710373  10.369357   8.516074   7.322732
    29  H    3.430168   2.710857   9.573518   7.676263   6.895796
    30  H    2.710966   3.430644   9.683144   7.485620   6.657760
    31  H    1.089152   2.709852   9.426879   7.778990   6.068283
    32  H    1.089984   3.430531   8.665386   6.634110   5.245385
    33  H    1.090582   2.711188   7.720842   6.188677   4.324467
    34  N    7.166096   6.539228   3.820250   2.819157   4.095442
    35  H    6.379309   5.922169   4.376529   2.699235   3.826888
    36  C    8.198846   7.245548   4.754407   4.201801   5.490076
    37  H    8.229393   6.986387   4.958569   4.813942   5.707137
    38  H    8.190056   7.236376   5.722880   4.744388   6.065679
    39  H    9.161752   8.293833   4.653215   4.441341   6.021678
                   16         17         18         19         20
    16  H    0.000000
    17  H    2.473394   0.000000
    18  H    3.035588   1.779209   0.000000
    19  H    3.116614   3.030434   2.454111   0.000000
    20  H    2.573253   2.453339   3.031354   1.779189   0.000000
    21  H    4.413538   2.599530   3.150022   3.028063   2.450375
    22  H    4.750965   3.150064   2.599402   2.450375   3.028291
    23  H    2.414954   4.343167   4.268966   4.789415   4.856353
    24  H    3.560053   4.751281   4.357186   5.533500   5.849243
    25  H    6.027969   5.556098   5.940593   4.095719   3.515694
    26  H    4.282157   4.180703   4.680087   2.817299   1.875725
    27  H    5.224811   4.335701   5.136548   3.925625   2.797876
    28  H    7.289970   6.092617   6.092710   4.773296   4.773360
    29  H    6.641407   5.004589   5.311532   4.628339   4.272540
    30  H    6.871201   5.312466   5.005391   4.273286   4.629124
    31  H    6.375537   5.939875   5.556428   3.515686   4.095581
    32  H    5.891277   5.136251   4.335902   2.798105   3.926024
    33  H    4.759232   4.679478   4.181719   1.875888   2.817040
    34  N    3.305054   2.229614   3.336106   5.106974   4.463423
    35  H    3.298416   1.537573   2.528766   4.447690   3.968668
    36  C    4.470957   3.336042   4.656360   6.329806   5.432487
    37  H    4.396718   3.562873   5.123604   6.431208   5.272803
    38  H    5.166206   3.537485   4.801736   6.559468   5.699116
    39  H    5.090955   4.237192   5.367670   7.174550   6.372876
                   21         22         23         24         25
    21  H    0.000000
    22  H    1.779189   0.000000
    23  H    6.587709   6.538573   0.000000
    24  H    7.141843   6.885680   1.635269   0.000000
    25  H    3.641195   4.204023   8.246033   9.294705   0.000000
    26  H    3.019524   3.679272   6.506782   7.623419   1.779510
    27  H    2.425923   3.669906   7.600901   8.562128   1.778985
    28  H    3.627930   3.627941   9.413825  10.127374   2.481581
    29  H    2.405379   2.992235   8.854393   9.459574   3.053777
    30  H    2.992908   2.406319   8.818722   9.268483   3.707175
    31  H    4.203577   3.641018   8.191270   9.021064   2.481059
    32  H    3.669932   2.425866   7.498602   8.043745   3.707238
    33  H    3.679373   3.020219   6.436974   7.286972   3.054031
    34  N    4.587544   5.215869   4.291356   4.287960   7.624022
    35  H    3.775420   4.276226   4.545401   4.532305   7.010771
    36  C    5.277278   6.197168   5.480808   5.485009   8.307257
    37  H    5.322639   6.472184   5.622590   5.910948   8.008528
    38  H    5.053254   6.006894   6.351553   6.283073   8.283984
    39  H    6.319756   7.127456   5.661949   5.457752   9.359676
                   26         27         28         29         30
    26  H    0.000000
    27  H    1.778843   0.000000
    28  H    3.707343   3.053945   0.000000
    29  H    3.707431   2.482361   1.779605   0.000000
    30  H    4.262628   3.708265   1.778980   1.780234   0.000000
    31  H    3.054205   3.706386   2.481091   3.706735   3.053480
    32  H    3.708456   4.262246   3.054058   3.708174   2.482756
    33  H    2.483037   3.707728   3.707560   4.262519   3.708537
    34  N    6.196491   6.225620   8.198234   6.916646   7.349570
    35  H    5.682675   5.655425   7.371229   6.096208   6.419486
    36  C    6.990485   6.734569   8.878071   7.426907   8.107630
    37  H    6.686255   6.402562   8.823554   7.396457   8.263590
    38  H    7.144691   6.648039   8.588812   7.023731   7.739417
    39  H    7.991992   7.809009   9.935020   8.489764   9.108188
                   31         32         33         34         35
    31  H    0.000000
    32  H    1.779426   0.000000
    33  H    1.779746   1.780163   0.000000
    34  N    8.167809   7.315332   6.855352   0.000000
    35  H    7.400776   6.453146   6.158213   1.010780   0.000000
    36  C    9.150253   8.404749   7.975073   1.449214   2.146570
    37  H    9.112717   8.571670   7.976936   2.082991   2.772725
    38  H    9.128509   8.334436   8.110006   2.084032   2.343361
    39  H   10.136418   9.327330   8.890128   2.083775   2.912376
                   36         37         38         39
    36  C    0.000000
    37  H    1.089599   0.000000
    38  H    1.090584   1.780261   0.000000
    39  H    1.090089   1.780540   1.779730   0.000000
 Stoichiometry    C10H25N3O(2+)
 Framework group  C1[X(C10H25N3O)]
 Deg. of freedom   111
 Full point group                 C1      NOp   1
 Largest Abelian subgroup         C1      NOp   1
 Largest concise Abelian subgroup C1      NOp   1
                         Standard orientation:                         
 ---------------------------------------------------------------------
 Center     Atomic      Atomic             Coordinates (Angstroms)
 Number     Number       Type             X           Y           Z
 ---------------------------------------------------------------------
      1          7           0        3.520241   -2.105498    0.073031
      2          6           0        2.640882   -1.054909   -0.416220
      3          6           0        3.204085    0.313534   -0.007388
      4          8           0        4.248927    0.403743    0.637997
      5          6           0        1.227776   -1.308951    0.114967
      6          6           0        0.176609   -0.367069   -0.481549
      7          6           0       -1.240478   -0.564659    0.070309
      8          6           0       -2.307477    0.370461   -0.514998
      9          7           0       -3.648497    0.138760    0.048786
     10          6           0       -4.638781    1.103036   -0.584727
     11          6           0       -4.080363   -1.290678   -0.237547
     12          6           0       -3.613392    0.364665    1.551976
     13          1           0        4.339412   -1.816861    0.588849
     14          1           0        2.518513   -1.155347   -1.495167
     15          1           0        0.926389   -2.328720   -0.123817
     16          1           0        1.215478   -1.170537    1.195848
     17          1           0        0.455350    0.665924   -0.276325
     18          1           0        0.120690   -0.520042   -1.559708
     19          1           0       -1.572403   -1.581709   -0.135293
     20          1           0       -1.237659   -0.395036    1.147388
     21          1           0       -2.036537    1.405460   -0.310127
     22          1           0       -2.371282    0.218787   -1.592807
     23          1           0        3.006897   -2.711280    0.696916
     24          1           0        3.824679   -2.654794   -0.718057
     25          1           0       -4.605037    0.193608    1.968585
     26          1           0       -2.903497   -0.325969    2.006781
     27          1           0       -3.304578    1.389110    1.757942
     28          1           0       -5.630512    0.931273   -0.167415
     29          1           0       -4.329968    2.127481   -0.378761
     30          1           0       -4.665844    0.940281   -1.662107
     31          1           0       -5.071863   -1.461045    0.179773
     32          1           0       -4.106440   -1.453595   -1.314971
     33          1           0       -3.370699   -1.982707    0.217252
     34          7           0        2.550733    1.423590   -0.356884
     35          1           0        1.694009    1.341891   -0.887002
     36          6           0        3.062106    2.726944    0.017265
     37          1           0        2.880650    2.896952    1.078112
     38          1           0        2.556386    3.497068   -0.566286
     39          1           0        4.133306    2.767658   -0.180640
 ---------------------------------------------------------------------
 Rotational constants (GHZ):           1.2047903           0.2381455           0.2122200
 Leave Link  202 at Sun May 31 21:38:53 2026, MaxMem=    67108864 cpu:               0.5 elap:               0.1
 (Enter /software/local/apps/gaussian-16.0/g16/l301.exe)
 Standard basis: 6-31G(d) (6D, 7F)
 Ernie: Thresh=  0.10000D-02 Tol=  0.10000D-05 Strict=F.
 There are   260 symmetry adapted cartesian basis functions of A   symmetry.
 There are   260 symmetry adapted basis functions of A   symmetry.
   260 basis functions,   492 primitive gaussians,   260 cartesian basis functions
    56 alpha electrons       56 beta electrons
       nuclear repulsion energy       984.4093126721 Hartrees.
 IExCor=  402 DFT=T Ex+Corr=B3LYP ExCW=0 ScaHFX=  0.200000
 ScaDFX=  0.800000  0.720000  1.000000  0.810000 ScalE2=  1.000000  1.000000
 IRadAn=      5 IRanWt=     -1 IRanGd=            0 ICorTp=0 IEmpDi=  4
 NAtoms=   39 NActive=   39 NUniq=   39 SFac= 1.00D+00 NAtFMM=   60 NAOKFM=F Big=F
 Integral buffers will be    131072 words long.
 Raffenetti 2 integral format.
 Two-electron integral symmetry is turned on.
 Leave Link  301 at Sun May 31 21:38:53 2026, MaxMem=    67108864 cpu:               1.4 elap:               0.1
 (Enter /software/local/apps/gaussian-16.0/g16/l302.exe)
 NPDir=0 NMtPBC=     1 NCelOv=     1 NCel=       1 NClECP=     1 NCelD=      1
         NCelK=      1 NCelE2=     1 NClLst=     1 CellRange=     0.0.
 One-electron integrals computed using PRISM.
 One-electron integral symmetry used in STVInt
 NBasis=   260 RedAO= T EigKep=  2.22D-03  NBF=   260
 NBsUse=   260 1.00D-06 EigRej= -1.00D+00 NBFU=   260
 Precomputing XC quadrature grid using
 IXCGrd= 4 IRadAn=           5 IRanWt=          -1 IRanGd=           0 AccXCQ= 0.00D+00.
 Generated NRdTot=       0 NPtTot=           0 NUsed=           0 NTot=          32
 NSgBfM=   259   259   259   259   259 MxSgAt=    39 MxSgA2=    39.
 Leave Link  302 at Sun May 31 21:38:53 2026, MaxMem=    67108864 cpu:               6.0 elap:               0.4
 (Enter /software/local/apps/gaussian-16.0/g16/l303.exe)
 DipDrv:  MaxL=1.
 Leave Link  303 at Sun May 31 21:38:54 2026, MaxMem=    67108864 cpu:               1.7 elap:               0.1
 (Enter /software/local/apps/gaussian-16.0/g16/l401.exe)
 ExpMin= 1.61D-01 ExpMax= 5.48D+03 ExpMxC= 8.25D+02 IAcc=3 IRadAn=         5 AccDes= 0.00D+00
 Harris functional with IExCor=  402 and IRadAn=       5 diagonalized for initial guess.
 HarFok:  IExCor=  402 AccDes= 0.00D+00 IRadAn=         5 IDoV= 1 UseB2=F ITyADJ=14
 ICtDFT=  3500011 ScaDFX=  1.000000  1.000000  1.000000  1.000000
 FoFCou: FMM=F IPFlag=           0 FMFlag=      100000 FMFlg1=           0
         NFxFlg=           0 DoJE=T BraDBF=F KetDBF=T FulRan=T
         wScrn=  0.000000 ICntrl=       500 IOpCl=  0 I1Cent=   200000004 NGrid=           0
         NMat0=    1 NMatS0=      1 NMatT0=    0 NMatD0=    1 NMtDS0=    0 NMtDT0=    0
 Petite list used in FoFCou.
 Harris En= -635.193392741225    
 JPrj=0 DoOrth=F DoCkMO=F.
 Leave Link  401 at Sun May 31 21:38:55 2026, MaxMem=    67108864 cpu:              20.6 elap:               1.4
 (Enter /software/local/apps/gaussian-16.0/g16/l502.exe)
 Integral symmetry usage will be decided dynamically.
 Closed shell SCF:
 Using DIIS extrapolation, IDIIS=  1040.
 NGot=    67108864 LenX=    66965306 LenY=    66897265
 Requested convergence on RMS density matrix=1.00D-08 within 128 cycles.
 Requested convergence on MAX density matrix=1.00D-06.
 Requested convergence on             energy=1.00D-06.
 No special actions if energy rises.
 Fock matrices will be formed incrementally for  20 cycles.
 Integral accuracy reduced to 1.0D-05 until final iterations.

 Cycle   1  Pass 0  IDiag  1:
 FoFJK:  IHMeth= 1 ICntrl=       0 DoSepK=F KAlg= 0 I1Cent=           0 FoldK=F
 IRaf= 820000000 NMat=       1 IRICut=       1 DoRegI=T DoRafI=F ISym2E= 0 IDoP0=0 IntGTp=1.
 FoFCou: FMM=F IPFlag=           0 FMFlag=      100000 FMFlg1=           0
         NFxFlg=           0 DoJE=F BraDBF=F KetDBF=F FulRan=T
         wScrn=  0.000000 ICntrl=         0 IOpCl=  0 I1Cent=           0 NGrid=           0
         NMat0=    1 NMatS0=      1 NMatT0=    0 NMatD0=    1 NMtDS0=    0 NMtDT0=    0
 Symmetry not used in FoFCou.
 E= -634.661238435929    
 DIIS: error= 2.92D-02 at cycle   1 NSaved=   1.
 NSaved= 1 IEnMin= 1 EnMin= -634.661238435929     IErMin= 1 ErrMin= 2.92D-02
 ErrMax= 2.92D-02  0.00D+00 EMaxC= 1.00D-01 BMatC= 4.03D-01 BMatP= 4.03D-01
 IDIUse=3 WtCom= 7.08D-01 WtEn= 2.92D-01
 Coeff-Com:  0.100D+01
 Coeff-En:   0.100D+01
 Coeff:      0.100D+01
 Gap=     0.221 Goal=   None    Shift=    0.000
 GapD=    0.221 DampG=1.000 DampE=0.500 DampFc=0.5000 IDamp=-1.
 Damping current iteration by 5.00D-01
 RMSDP=6.23D-03 MaxDP=2.47D-01              OVMax= 2.98D-01

 Cycle   2  Pass 0  IDiag  1:
 RMSU=  3.11D-03    CP:  9.88D-01
 E= -634.775323581688     Delta-E=       -0.114085145759 Rises=F Damp=T
 DIIS: error= 1.77D-02 at cycle   2 NSaved=   2.
 NSaved= 2 IEnMin= 2 EnMin= -634.775323581688     IErMin= 2 ErrMin= 1.77D-02
 ErrMax= 1.77D-02  0.00D+00 EMaxC= 1.00D-01 BMatC= 6.37D-02 BMatP= 4.03D-01
 IDIUse=3 WtCom= 8.23D-01 WtEn= 1.77D-01
 Coeff-Com:  0.202D+00 0.798D+00
 Coeff-En:   0.309D+00 0.691D+00
 Coeff:      0.221D+00 0.779D+00
 Gap=     0.296 Goal=   None    Shift=    0.000
 RMSDP=2.10D-03 MaxDP=8.46D-02 DE=-1.14D-01 OVMax= 2.16D-01

 Cycle   3  Pass 0  IDiag  1:
 RMSU=  1.71D-03    CP:  9.79D-01  6.10D-01
 E= -634.980418088690     Delta-E=       -0.205094507002 Rises=F Damp=F
 DIIS: error= 2.35D-02 at cycle   3 NSaved=   3.
 NSaved= 3 IEnMin= 3 EnMin= -634.980418088690     IErMin= 2 ErrMin= 1.77D-02
 ErrMax= 2.35D-02  0.00D+00 EMaxC= 1.00D-01 BMatC= 6.66D-02 BMatP= 6.37D-02
 IDIUse=3 WtCom= 7.65D-01 WtEn= 2.35D-01
 Coeff-Com:  0.649D-01 0.494D+00 0.442D+00
 Coeff-En:   0.000D+00 0.000D+00 0.100D+01
 Coeff:      0.496D-01 0.378D+00 0.573D+00
 Gap=     0.265 Goal=   None    Shift=    0.000
 RMSDP=1.62D-03 MaxDP=8.27D-02 DE=-2.05D-01 OVMax= 1.63D-01

 Cycle   4  Pass 0  IDiag  1:
 RMSU=  8.84D-04    CP:  9.87D-01  8.39D-01  3.32D-01
 E= -635.008707073834     Delta-E=       -0.028288985144 Rises=F Damp=F
 DIIS: error= 1.74D-02 at cycle   4 NSaved=   4.
 NSaved= 4 IEnMin= 4 EnMin= -635.008707073834     IErMin= 4 ErrMin= 1.74D-02
 ErrMax= 1.74D-02  0.00D+00 EMaxC= 1.00D-01 BMatC= 3.43D-02 BMatP= 6.37D-02
 IDIUse=3 WtCom= 8.26D-01 WtEn= 1.74D-01
 Coeff-Com:  0.182D-01 0.846D-01 0.403D+00 0.494D+00
 Coeff-En:   0.000D+00 0.000D+00 0.369D+00 0.631D+00
 Coeff:      0.150D-01 0.699D-01 0.397D+00 0.518D+00
 Gap=     0.270 Goal=   None    Shift=    0.000
 RMSDP=7.70D-04 MaxDP=3.87D-02 DE=-2.83D-02 OVMax= 7.49D-02

 Cycle   5  Pass 0  IDiag  1:
 RMSU=  1.99D-04    CP:  9.85D-01  7.17D-01  6.21D-01  5.43D-01
 E= -635.035409459126     Delta-E=       -0.026702385293 Rises=F Damp=F
 DIIS: error= 1.70D-03 at cycle   5 NSaved=   5.
 NSaved= 5 IEnMin= 5 EnMin= -635.035409459126     IErMin= 5 ErrMin= 1.70D-03
 ErrMax= 1.70D-03  0.00D+00 EMaxC= 1.00D-01 BMatC= 1.07D-03 BMatP= 3.43D-02
 IDIUse=3 WtCom= 9.83D-01 WtEn= 1.70D-02
 Coeff-Com:  0.386D-02 0.390D-02 0.178D+00 0.292D+00 0.523D+00
 Coeff-En:   0.000D+00 0.000D+00 0.000D+00 0.000D+00 0.100D+01
 Coeff:      0.380D-02 0.383D-02 0.175D+00 0.287D+00 0.531D+00
 Gap=     0.253 Goal=   None    Shift=    0.000
 RMSDP=1.35D-04 MaxDP=5.88D-03 DE=-2.67D-02 OVMax= 1.25D-02

 Cycle   6  Pass 0  IDiag  1:
 RMSU=  6.30D-05    CP:  9.84D-01  7.29D-01  6.01D-01  5.90D-01  4.99D-01
 E= -635.036285275477     Delta-E=       -0.000875816351 Rises=F Damp=F
 DIIS: error= 3.79D-04 at cycle   6 NSaved=   6.
 NSaved= 6 IEnMin= 6 EnMin= -635.036285275477     IErMin= 6 ErrMin= 3.79D-04
 ErrMax= 3.79D-04  0.00D+00 EMaxC= 1.00D-01 BMatC= 5.12D-05 BMatP= 1.07D-03
 IDIUse=3 WtCom= 9.96D-01 WtEn= 3.79D-03
 Coeff-Com: -0.324D-03-0.432D-02 0.229D-01 0.505D-01 0.233D+00 0.699D+00
 Coeff-En:   0.000D+00 0.000D+00 0.000D+00 0.000D+00 0.000D+00 0.100D+01
 Coeff:     -0.323D-03-0.431D-02 0.228D-01 0.503D-01 0.232D+00 0.700D+00
 Gap=     0.252 Goal=   None    Shift=    0.000
 RMSDP=2.82D-05 MaxDP=9.95D-04 DE=-8.76D-04 OVMax= 1.33D-03

 Cycle   7  Pass 0  IDiag  1:
 RMSU=  1.19D-05    CP:  9.84D-01  7.29D-01  6.04D-01  5.93D-01  5.86D-01
                    CP:  7.16D-01
 E= -635.036330270660     Delta-E=       -0.000044995183 Rises=F Damp=F
 DIIS: error= 4.33D-05 at cycle   7 NSaved=   7.
 NSaved= 7 IEnMin= 7 EnMin= -635.036330270660     IErMin= 7 ErrMin= 4.33D-05
 ErrMax= 4.33D-05  0.00D+00 EMaxC= 1.00D-01 BMatC= 9.66D-07 BMatP= 5.12D-05
 IDIUse=1 WtCom= 1.00D+00 WtEn= 0.00D+00
 Coeff-Com: -0.130D-03-0.132D-02 0.376D-02 0.899D-02 0.680D-01 0.239D+00
 Coeff-Com:  0.682D+00
 Coeff:     -0.130D-03-0.132D-02 0.376D-02 0.899D-02 0.680D-01 0.239D+00
 Coeff:      0.682D+00
 Gap=     0.252 Goal=   None    Shift=    0.000
 RMSDP=5.70D-06 MaxDP=1.73D-04 DE=-4.50D-05 OVMax= 1.83D-04

 Initial convergence to 1.0D-05 achieved.  Increase integral accuracy.
 Cycle   8  Pass 1  IDiag  1:
 E= -635.036336676176     Delta-E=       -0.000006405516 Rises=F Damp=F
 DIIS: error= 2.59D-05 at cycle   1 NSaved=   1.
 NSaved= 1 IEnMin= 1 EnMin= -635.036336676176     IErMin= 1 ErrMin= 2.59D-05
 ErrMax= 2.59D-05  0.00D+00 EMaxC= 1.00D-01 BMatC= 2.70D-07 BMatP= 2.70D-07
 IDIUse=1 WtCom= 1.00D+00 WtEn= 0.00D+00
 Coeff-Com:  0.100D+01
 Coeff:      0.100D+01
 Gap=     0.252 Goal=   None    Shift=    0.000
 RMSDP=5.70D-06 MaxDP=1.73D-04 DE=-6.41D-06 OVMax= 1.43D-04

 Cycle   9  Pass 1  IDiag  1:
 RMSU=  7.75D-06    CP:  1.00D+00
 E= -635.036336625926     Delta-E=        0.000000050250 Rises=F Damp=F
 DIIS: error= 3.01D-05 at cycle   2 NSaved=   2.
 NSaved= 2 IEnMin= 1 EnMin= -635.036336676176     IErMin= 1 ErrMin= 2.59D-05
 ErrMax= 3.01D-05  0.00D+00 EMaxC= 1.00D-01 BMatC= 3.43D-07 BMatP= 2.70D-07
 IDIUse=1 WtCom= 1.00D+00 WtEn= 0.00D+00
 Coeff-Com:  0.534D+00 0.466D+00
 Coeff:      0.534D+00 0.466D+00
 Gap=     0.252 Goal=   None    Shift=    0.000
 RMSDP=2.44D-06 MaxDP=8.32D-05 DE= 5.02D-08 OVMax= 1.21D-04

 Cycle  10  Pass 1  IDiag  1:
 RMSU=  2.18D-06    CP:  1.00D+00  8.61D-01
 E= -635.036336914242     Delta-E=       -0.000000288316 Rises=F Damp=F
 DIIS: error= 1.47D-05 at cycle   3 NSaved=   3.
 NSaved= 3 IEnMin= 3 EnMin= -635.036336914242     IErMin= 3 ErrMin= 1.47D-05
 ErrMax= 1.47D-05  0.00D+00 EMaxC= 1.00D-01 BMatC= 2.65D-08 BMatP= 2.70D-07
 IDIUse=1 WtCom= 1.00D+00 WtEn= 0.00D+00
 Coeff-Com:  0.157D+00 0.237D+00 0.606D+00
 Coeff:      0.157D+00 0.237D+00 0.606D+00
 Gap=     0.252 Goal=   None    Shift=    0.000
 RMSDP=9.88D-07 MaxDP=5.42D-05 DE=-2.88D-07 OVMax= 8.82D-05

 Cycle  11  Pass 1  IDiag  1:
 RMSU=  8.45D-07    CP:  1.00D+00  8.82D-01  7.80D-01
 E= -635.036336923174     Delta-E=       -0.000000008932 Rises=F Damp=F
 DIIS: error= 1.00D-05 at cycle   4 NSaved=   4.
 NSaved= 4 IEnMin= 4 EnMin= -635.036336923174     IErMin= 4 ErrMin= 1.00D-05
 ErrMax= 1.00D-05  0.00D+00 EMaxC= 1.00D-01 BMatC= 1.44D-08 BMatP= 2.65D-08
 IDIUse=1 WtCom= 1.00D+00 WtEn= 0.00D+00
 Coeff-Com:  0.107D-02 0.761D-01 0.457D+00 0.466D+00
 Coeff:      0.107D-02 0.761D-01 0.457D+00 0.466D+00
 Gap=     0.252 Goal=   None    Shift=    0.000
 RMSDP=4.75D-07 MaxDP=2.41D-05 DE=-8.93D-09 OVMax= 4.45D-05

 Cycle  12  Pass 1  IDiag  1:
 RMSU=  1.01D-07    CP:  1.00D+00  8.85D-01  8.40D-01  4.75D-01
 E= -635.036336934701     Delta-E=       -0.000000011527 Rises=F Damp=F
 DIIS: error= 7.03D-07 at cycle   5 NSaved=   5.
 NSaved= 5 IEnMin= 5 EnMin= -635.036336934701     IErMin= 5 ErrMin= 7.03D-07
 ErrMax= 7.03D-07  0.00D+00 EMaxC= 1.00D-01 BMatC= 1.76D-10 BMatP= 1.44D-08
 IDIUse=1 WtCom= 1.00D+00 WtEn= 0.00D+00
 Coeff-Com: -0.252D-02 0.372D-01 0.239D+00 0.260D+00 0.466D+00
 Coeff:     -0.252D-02 0.372D-01 0.239D+00 0.260D+00 0.466D+00
 Gap=     0.252 Goal=   None    Shift=    0.000
 RMSDP=5.24D-08 MaxDP=2.04D-06 DE=-1.15D-08 OVMax= 3.21D-06

 Cycle  13  Pass 1  IDiag  1:
 RMSU=  2.72D-08    CP:  1.00D+00  8.86D-01  8.35D-01  4.83D-01  5.79D-01
 E= -635.036336934848     Delta-E=       -0.000000000148 Rises=F Damp=F
 DIIS: error= 1.33D-07 at cycle   6 NSaved=   6.
 NSaved= 6 IEnMin= 6 EnMin= -635.036336934848     IErMin= 6 ErrMin= 1.33D-07
 ErrMax= 1.33D-07  0.00D+00 EMaxC= 1.00D-01 BMatC= 6.96D-12 BMatP= 1.76D-10
 IDIUse=1 WtCom= 1.00D+00 WtEn= 0.00D+00
 Coeff-Com: -0.129D-02 0.116D-01 0.772D-01 0.881D-01 0.216D+00 0.609D+00
 Coeff:     -0.129D-02 0.116D-01 0.772D-01 0.881D-01 0.216D+00 0.609D+00
 Gap=     0.252 Goal=   None    Shift=    0.000
 RMSDP=1.07D-08 MaxDP=4.91D-07 DE=-1.48D-10 OVMax= 5.28D-07

 Cycle  14  Pass 1  IDiag  1:
 RMSU=  8.77D-09    CP:  1.00D+00  8.86D-01  8.36D-01  4.86D-01  5.89D-01
                    CP:  8.02D-01
 E= -635.036336934854     Delta-E=       -0.000000000006 Rises=F Damp=F
 DIIS: error= 3.26D-08 at cycle   7 NSaved=   7.
 NSaved= 7 IEnMin= 7 EnMin= -635.036336934854     IErMin= 7 ErrMin= 3.26D-08
 ErrMax= 3.26D-08  0.00D+00 EMaxC= 1.00D-01 BMatC= 5.71D-13 BMatP= 6.96D-12
 IDIUse=1 WtCom= 1.00D+00 WtEn= 0.00D+00
 Coeff-Com: -0.364D-03 0.201D-02 0.139D-01 0.175D-01 0.531D-01 0.273D+00
 Coeff-Com:  0.640D+00
 Coeff:     -0.364D-03 0.201D-02 0.139D-01 0.175D-01 0.531D-01 0.273D+00
 Coeff:      0.640D+00
 Gap=     0.252 Goal=   None    Shift=    0.000
 RMSDP=3.43D-09 MaxDP=1.17D-07 DE=-5.68D-12 OVMax= 1.19D-07

 SCF Done:  E(RB3LYP) =  -635.036336935     A.U. after   14 cycles
            NFock= 14  Conv=0.34D-08     -V/T= 2.0089
 KE= 6.294110646618D+02 PE=-3.410924939616D+03 EE= 1.162068225348D+03
 Leave Link  502 at Sun May 31 21:39:14 2026, MaxMem=    67108864 cpu:             298.0 elap:              19.1
 (Enter /software/local/apps/gaussian-16.0/g16/l601.exe)
 Copying SCF densities to generalized density rwf, IOpCl= 0 IROHF=0.

 **********************************************************************

            Population analysis using the SCF Density.

 **********************************************************************

 Orbital symmetries:
       Occupied  (A) (A) (A) (A) (A) (A) (A) (A) (A) (A) (A) (A)
                 (A) (A) (A) (A) (A) (A) (A) (A) (A) (A) (A) (A)
                 (A) (A) (A) (A) (A) (A) (A) (A) (A) (A) (A) (A)
                 (A) (A) (A) (A) (A) (A) (A) (A) (A) (A) (A) (A)
                 (A) (A) (A) (A) (A) (A) (A) (A)
       Virtual   (A) (A) (A) (A) (A) (A) (A) (A) (A) (A) (A) (A)
                 (A) (A) (A) (A) (A) (A) (A) (A) (A) (A) (A) (A)
                 (A) (A) (A) (A) (A) (A) (A) (A) (A) (A) (A) (A)
                 (A) (A) (A) (A) (A) (A) (A) (A) (A) (A) (A) (A)
                 (A) (A) (A) (A) (A) (A) (A) (A) (A) (A) (A) (A)
                 (A) (A) (A) (A) (A) (A) (A) (A) (A) (A) (A) (A)
                 (A) (A) (A) (A) (A) (A) (A) (A) (A) (A) (A) (A)
                 (A) (A) (A) (A) (A) (A) (A) (A) (A) (A) (A) (A)
                 (A) (A) (A) (A) (A) (A) (A) (A) (A) (A) (A) (A)
                 (A) (A) (A) (A) (A) (A) (A) (A) (A) (A) (A) (A)
                 (A) (A) (A) (A) (A) (A) (A) (A) (A) (A) (A) (A)
                 (A) (A) (A) (A) (A) (A) (A) (A) (A) (A) (A) (A)
                 (A) (A) (A) (A) (A) (A) (A) (A) (A) (A) (A) (A)
                 (A) (A) (A) (A) (A) (A) (A) (A) (A) (A) (A) (A)
                 (A) (A) (A) (A) (A) (A) (A) (A) (A) (A) (A) (A)
                 (A) (A) (A) (A) (A) (A) (A) (A) (A) (A) (A) (A)
                 (A) (A) (A) (A) (A) (A) (A) (A) (A) (A) (A) (A)
 The electronic state is 1-A.
 Alpha  occ. eigenvalues --  -19.35282 -14.72931 -14.72445 -14.59572 -10.53066
 Alpha  occ. eigenvalues --  -10.52429 -10.49976 -10.48741 -10.48732 -10.48376
 Alpha  occ. eigenvalues --  -10.46929 -10.45869 -10.45847 -10.41560  -1.30437
 Alpha  occ. eigenvalues --   -1.27552  -1.26822  -1.15778  -1.09025  -1.05100
 Alpha  occ. eigenvalues --   -1.00046  -0.99932  -0.99225  -0.94021  -0.92081
 Alpha  occ. eigenvalues --   -0.89130  -0.87475  -0.86121  -0.84644  -0.82303
 Alpha  occ. eigenvalues --   -0.78989  -0.78386  -0.77966  -0.76911  -0.76062
 Alpha  occ. eigenvalues --   -0.74094  -0.71170  -0.69515  -0.68667  -0.68183
 Alpha  occ. eigenvalues --   -0.66791  -0.66617  -0.65918  -0.65865  -0.65686
 Alpha  occ. eigenvalues --   -0.65444  -0.65060  -0.64171  -0.62606  -0.62188
 Alpha  occ. eigenvalues --   -0.60635  -0.60301  -0.59041  -0.58784  -0.49886
 Alpha  occ. eigenvalues --   -0.48202
 Alpha virt. eigenvalues --   -0.22990  -0.21755  -0.19748  -0.17828  -0.17210
 Alpha virt. eigenvalues --   -0.16013  -0.15381  -0.14962  -0.14232  -0.13949
 Alpha virt. eigenvalues --   -0.13037  -0.12752  -0.12236  -0.11555  -0.10754
 Alpha virt. eigenvalues --   -0.10250  -0.09058  -0.08913  -0.08531  -0.08018
 Alpha virt. eigenvalues --   -0.07316  -0.06995  -0.05965  -0.05620  -0.05304
 Alpha virt. eigenvalues --   -0.04928  -0.03942  -0.03501  -0.02923  -0.02524
 Alpha virt. eigenvalues --   -0.01334  -0.00328   0.00768   0.00989   0.01964
 Alpha virt. eigenvalues --    0.03662   0.05200   0.11626   0.15346   0.21459
 Alpha virt. eigenvalues --    0.21605   0.22072   0.22660   0.25309   0.25787
 Alpha virt. eigenvalues --    0.27433   0.28418   0.28915   0.30473   0.32629
 Alpha virt. eigenvalues --    0.33169   0.34032   0.34377   0.35348   0.36568
 Alpha virt. eigenvalues --    0.38263   0.39337   0.40146   0.41955   0.43799
 Alpha virt. eigenvalues --    0.44797   0.47834   0.48796   0.50232   0.50746
 Alpha virt. eigenvalues --    0.51693   0.52332   0.53848   0.54777   0.55548
 Alpha virt. eigenvalues --    0.55814   0.56550   0.56930   0.58004   0.58785
 Alpha virt. eigenvalues --    0.59088   0.59782   0.61028   0.61450   0.62102
 Alpha virt. eigenvalues --    0.62558   0.63714   0.64456   0.65116   0.65970
 Alpha virt. eigenvalues --    0.66439   0.67296   0.67855   0.68065   0.68409
 Alpha virt. eigenvalues --    0.69210   0.70444   0.70996   0.71433   0.72434
 Alpha virt. eigenvalues --    0.73220   0.74582   0.75569   0.76813   0.77274
 Alpha virt. eigenvalues --    0.79256   0.80401   0.82295   0.84332   0.85993
 Alpha virt. eigenvalues --    0.88507   0.94459   1.00216   1.00710   1.04945
 Alpha virt. eigenvalues --    1.07211   1.09301   1.12228   1.14727   1.18827
 Alpha virt. eigenvalues --    1.20588   1.22214   1.23251   1.24312   1.27214
 Alpha virt. eigenvalues --    1.31481   1.33196   1.36062   1.39344   1.41550
 Alpha virt. eigenvalues --    1.43778   1.45071   1.48657   1.50235   1.51732
 Alpha virt. eigenvalues --    1.54278   1.56598   1.57711   1.59069   1.60352
 Alpha virt. eigenvalues --    1.60857   1.62089   1.62291   1.64255   1.68074
 Alpha virt. eigenvalues --    1.69449   1.70184   1.71334   1.71819   1.75160
 Alpha virt. eigenvalues --    1.75912   1.78451   1.79871   1.80964   1.81196
 Alpha virt. eigenvalues --    1.82873   1.84450   1.84858   1.86960   1.89625
 Alpha virt. eigenvalues --    1.90482   1.91286   1.95358   1.95655   1.96559
 Alpha virt. eigenvalues --    1.97610   1.97973   1.99619   2.01104   2.02179
 Alpha virt. eigenvalues --    2.04837   2.05209   2.07738   2.11839   2.13114
 Alpha virt. eigenvalues --    2.15361   2.17044   2.18539   2.22403   2.24224
 Alpha virt. eigenvalues --    2.29938   2.33784   2.35769   2.36920   2.40344
 Alpha virt. eigenvalues --    2.42124   2.43380   2.45220   2.47945   2.50835
 Alpha virt. eigenvalues --    2.56290   2.60618   2.66539   2.76647   2.92491
 Alpha virt. eigenvalues --    3.51013   3.75008   3.81359   3.84206   3.92448
 Alpha virt. eigenvalues --    4.02196   4.02324   4.03642   4.06384   4.10267
 Alpha virt. eigenvalues --    4.13400   4.19524   4.27594   4.35533
          Condensed to atoms (all electrons):
               1          2          3          4          5          6
     1  N    6.790110   0.179932  -0.038946  -0.012878  -0.039593   0.003674
     2  C    0.179932   5.399052   0.252922  -0.086029   0.331171  -0.030850
     3  C   -0.038946   0.252922   4.365041   0.592674  -0.032678  -0.007575
     4  O   -0.012878  -0.086029   0.592674   8.050001  -0.000497   0.000093
     5  C   -0.039593   0.331171  -0.032678  -0.000497   5.103319   0.369276
     6  C    0.003674  -0.030850  -0.007575   0.000093   0.369276   5.050181
     7  C   -0.000073   0.003119   0.000188   0.000000  -0.028528   0.353605
     8  C    0.000000  -0.000080  -0.000002  -0.000000   0.002740  -0.028461
     9  N   -0.000000   0.000000   0.000000   0.000000  -0.000052   0.002317
    10  C    0.000000  -0.000000  -0.000000  -0.000000   0.000001  -0.000038
    11  C    0.000000   0.000000  -0.000000  -0.000000   0.000006   0.000317
    12  C   -0.000000   0.000000  -0.000000  -0.000000   0.000007   0.000309
    13  H    0.264420  -0.041150   0.006361   0.043290   0.003479  -0.000060
    14  H   -0.037029   0.377021  -0.020011   0.000900  -0.050318  -0.001476
    15  H   -0.004556  -0.035433   0.003777  -0.000070   0.370109  -0.031414
    16  H   -0.003087  -0.039924  -0.003321   0.000731   0.373049  -0.031251
    17  H   -0.000110  -0.006743   0.003820  -0.000201  -0.036809   0.350672
    18  H   -0.000004  -0.003145  -0.000713  -0.000003  -0.039850   0.382870
    19  H   -0.000002   0.000006  -0.000002   0.000000  -0.003169  -0.031060
    20  H   -0.000000   0.000060  -0.000017  -0.000000  -0.003586  -0.031297
    21  H   -0.000000   0.000002  -0.000000   0.000000  -0.000036  -0.001647
    22  H    0.000000   0.000001  -0.000000  -0.000000  -0.000028  -0.001628
    23  H    0.303889  -0.030903   0.002485   0.000214  -0.001494  -0.000080
    24  H    0.305564  -0.020350   0.002434   0.000545   0.002268  -0.000126
    25  H    0.000000  -0.000000  -0.000000  -0.000000  -0.000000  -0.000006
    26  H    0.000000   0.000000  -0.000000   0.000000   0.000002   0.000191
    27  H   -0.000000  -0.000000   0.000000  -0.000000  -0.000000  -0.000034
    28  H   -0.000000   0.000000   0.000000  -0.000000  -0.000000   0.000001
    29  H    0.000000  -0.000000   0.000000  -0.000000   0.000000  -0.000004
    30  H    0.000000   0.000000   0.000000   0.000000   0.000000  -0.000004
    31  H    0.000000  -0.000000  -0.000000   0.000000  -0.000000  -0.000006
    32  H   -0.000000  -0.000000   0.000000   0.000000  -0.000000  -0.000033
    33  H    0.000000   0.000000  -0.000000  -0.000000   0.000001   0.000187
    34  N    0.002539  -0.133062   0.307994  -0.117739   0.007731  -0.022515
    35  H   -0.000052   0.003050  -0.023420   0.003878  -0.005709   0.010160
    36  C   -0.000072   0.005637  -0.031317   0.002891  -0.000114   0.000499
    37  H    0.000005   0.000082  -0.005939   0.001899  -0.000061   0.000146
    38  H    0.000001  -0.000078   0.006174   0.000763  -0.000002  -0.000035
    39  H   -0.000003   0.000116  -0.004077   0.006265   0.000004  -0.000031
               7          8          9         10         11         12
     1  N   -0.000073   0.000000  -0.000000   0.000000   0.000000  -0.000000
     2  C    0.003119  -0.000080   0.000000  -0.000000   0.000000   0.000000
     3  C    0.000188  -0.000002   0.000000  -0.000000  -0.000000  -0.000000
     4  O    0.000000  -0.000000   0.000000  -0.000000  -0.000000  -0.000000
     5  C   -0.028528   0.002740  -0.000052   0.000001   0.000006   0.000007
     6  C    0.353605  -0.028461   0.002317  -0.000038   0.000317   0.000309
     7  C    5.080729   0.350466  -0.035900   0.004474  -0.008300  -0.008257
     8  C    0.350466   5.088610   0.225934  -0.051123  -0.048464  -0.048444
     9  N   -0.035900   0.225934   6.782186   0.244576   0.236720   0.236526
    10  C    0.004474  -0.051123   0.244576   5.107395  -0.045172  -0.045234
    11  C   -0.008300  -0.048464   0.236720  -0.045172   5.134081  -0.047471
    12  C   -0.008257  -0.048444   0.236526  -0.045234  -0.047471   5.134024
    13  H    0.000001  -0.000000   0.000000  -0.000000   0.000000  -0.000000
    14  H   -0.000019  -0.000001   0.000000   0.000000   0.000000  -0.000000
    15  H   -0.003543   0.000018   0.000000   0.000000  -0.000008   0.000000
    16  H   -0.003834   0.000030   0.000000   0.000000   0.000000  -0.000010
    17  H   -0.030106  -0.003121  -0.000001  -0.000004  -0.000004  -0.000010
    18  H   -0.040285  -0.003346  -0.000006  -0.000003  -0.000011  -0.000004
    19  H    0.378674  -0.042899  -0.003989  -0.000056   0.002024  -0.000879
    20  H    0.379064  -0.043047  -0.004001  -0.000058  -0.000877   0.002077
    21  H   -0.036800   0.381293  -0.035594  -0.002694   0.004860  -0.003933
    22  H   -0.036509   0.381781  -0.035484  -0.002720  -0.003919   0.004831
    23  H   -0.000017   0.000000  -0.000000   0.000000  -0.000000  -0.000000
    24  H    0.000001  -0.000000   0.000000  -0.000000  -0.000000  -0.000000
    25  H    0.000292   0.004184  -0.026653  -0.001963  -0.002301   0.377319
    26  H    0.002105  -0.007086  -0.027939   0.003448  -0.002354   0.376894
    27  H   -0.001131  -0.001188  -0.028700  -0.002127   0.003755   0.376617
    28  H   -0.000165   0.003940  -0.026598   0.376867  -0.002142  -0.002145
    29  H   -0.000002  -0.002675  -0.027684   0.377171   0.003704  -0.002575
    30  H   -0.000002  -0.002603  -0.027618   0.377170  -0.002561   0.003698
    31  H    0.000293   0.004191  -0.026672  -0.001967   0.377268  -0.002305
    32  H   -0.001128  -0.001152  -0.028639  -0.002116   0.376584   0.003746
    33  H    0.002022  -0.007096  -0.027947   0.003450   0.376739  -0.002349
    34  N    0.000805   0.000008  -0.000000  -0.000000   0.000000   0.000000
    35  H   -0.000452  -0.000035  -0.000000   0.000000   0.000000   0.000000
    36  C   -0.000020  -0.000000  -0.000000   0.000000  -0.000000  -0.000000
    37  H   -0.000001   0.000000   0.000000   0.000000   0.000000  -0.000000
    38  H   -0.000000  -0.000000   0.000000  -0.000000  -0.000000  -0.000000
    39  H    0.000000   0.000000  -0.000000  -0.000000   0.000000   0.000000
              13         14         15         16         17         18
     1  N    0.264420  -0.037029  -0.004556  -0.003087  -0.000110  -0.000004
     2  C   -0.041150   0.377021  -0.035433  -0.039924  -0.006743  -0.003145
     3  C    0.006361  -0.020011   0.003777  -0.003321   0.003820  -0.000713
     4  O    0.043290   0.000900  -0.000070   0.000731  -0.000201  -0.000003
     5  C    0.003479  -0.050318   0.370109   0.373049  -0.036809  -0.039850
     6  C   -0.000060  -0.001476  -0.031414  -0.031251   0.350672   0.382870
     7  C    0.000001  -0.000019  -0.003543  -0.003834  -0.030106  -0.040285
     8  C   -0.000000  -0.000001   0.000018   0.000030  -0.003121  -0.003346
     9  N    0.000000   0.000000   0.000000   0.000000  -0.000001  -0.000006
    10  C   -0.000000   0.000000   0.000000   0.000000  -0.000004  -0.000003
    11  C    0.000000   0.000000  -0.000008   0.000000  -0.000004  -0.000011
    12  C   -0.000000  -0.000000   0.000000  -0.000010  -0.000010  -0.000004
    13  H    0.291037   0.002413  -0.000168   0.000333   0.000002   0.000000
    14  H    0.002413   0.488829  -0.004976   0.005732  -0.000691   0.005313
    15  H   -0.000168  -0.004976   0.541608  -0.031750   0.005661  -0.004997
    16  H    0.000333   0.005732  -0.031750   0.527060  -0.005092   0.005027
    17  H    0.000002  -0.000691   0.005661  -0.005092   0.584963  -0.037191
    18  H    0.000000   0.005313  -0.004997   0.005027  -0.037191   0.549302
    19  H    0.000000  -0.000002   0.003628  -0.000295   0.004573  -0.004834
    20  H   -0.000000   0.000009  -0.000267   0.004091  -0.005186   0.005056
    21  H    0.000000   0.000001   0.000004   0.000004   0.003554  -0.000272
    22  H   -0.000000  -0.000001   0.000004   0.000005  -0.000341   0.003674
    23  H   -0.010987   0.003228   0.004440   0.003834   0.000045   0.000036
    24  H   -0.007100  -0.004606   0.000136   0.000022  -0.000005   0.000009
    25  H   -0.000000   0.000000  -0.000000   0.000000  -0.000000   0.000000
    26  H   -0.000000  -0.000000   0.000002  -0.000011   0.000018  -0.000001
    27  H    0.000000   0.000000  -0.000000   0.000000   0.000004   0.000000
    28  H    0.000000  -0.000000   0.000000   0.000000   0.000000   0.000000
    29  H    0.000000   0.000000  -0.000000   0.000000  -0.000000   0.000000
    30  H   -0.000000  -0.000000   0.000000  -0.000000   0.000000  -0.000000
    31  H    0.000000   0.000000   0.000000  -0.000000   0.000000  -0.000000
    32  H   -0.000000  -0.000000   0.000000  -0.000000   0.000000   0.000003
    33  H    0.000000   0.000000  -0.000010   0.000003  -0.000002   0.000020
    34  N    0.001839   0.001049  -0.000074   0.000284   0.008261  -0.000082
    35  H   -0.000079   0.000713  -0.000011   0.000247   0.003555   0.001954
    36  C   -0.000043  -0.000090   0.000005  -0.000070   0.000702  -0.000016
    37  H    0.000001  -0.000003  -0.000001   0.000001  -0.000648  -0.000001
    38  H   -0.000001  -0.000003   0.000000  -0.000001   0.000167   0.000000
    39  H   -0.000007  -0.000004   0.000000  -0.000001   0.000096   0.000000
              19         20         21         22         23         24
     1  N   -0.000002  -0.000000  -0.000000   0.000000   0.303889   0.305564
     2  C    0.000006   0.000060   0.000002   0.000001  -0.030903  -0.020350
     3  C   -0.000002  -0.000017  -0.000000  -0.000000   0.002485   0.002434
     4  O    0.000000  -0.000000   0.000000  -0.000000   0.000214   0.000545
     5  C   -0.003169  -0.003586  -0.000036  -0.000028  -0.001494   0.002268
     6  C   -0.031060  -0.031297  -0.001647  -0.001628  -0.000080  -0.000126
     7  C    0.378674   0.379064  -0.036800  -0.036509  -0.000017   0.000001
     8  C   -0.042899  -0.043047   0.381293   0.381781   0.000000  -0.000000
     9  N   -0.003989  -0.004001  -0.035594  -0.035484  -0.000000   0.000000
    10  C   -0.000056  -0.000058  -0.002694  -0.002720   0.000000  -0.000000
    11  C    0.002024  -0.000877   0.004860  -0.003919  -0.000000  -0.000000
    12  C   -0.000879   0.002077  -0.003933   0.004831  -0.000000  -0.000000
    13  H    0.000000  -0.000000   0.000000  -0.000000  -0.010987  -0.007100
    14  H   -0.000002   0.000009   0.000001  -0.000001   0.003228  -0.004606
    15  H    0.003628  -0.000267   0.000004   0.000004   0.004440   0.000136
    16  H   -0.000295   0.004091   0.000004   0.000005   0.003834   0.000022
    17  H    0.004573  -0.005186   0.003554  -0.000341   0.000045  -0.000005
    18  H   -0.004834   0.005056  -0.000272   0.003674   0.000036   0.000009
    19  H    0.545429  -0.031821   0.004803  -0.004311   0.000002   0.000000
    20  H   -0.031821   0.543155  -0.004353   0.004734   0.000002   0.000000
    21  H    0.004803  -0.004353   0.502851  -0.024887   0.000000   0.000000
    22  H   -0.004311   0.004734  -0.024887   0.498195   0.000000   0.000000
    23  H    0.000002   0.000002   0.000000   0.000000   0.307494  -0.011971
    24  H    0.000000   0.000000   0.000000   0.000000  -0.011971   0.293073
    25  H   -0.000040   0.000066  -0.000049  -0.000140   0.000000   0.000000
    26  H    0.000186   0.004337  -0.000160  -0.000032   0.000000  -0.000000
    27  H    0.000074   0.000068   0.003896  -0.000000   0.000000   0.000000
    28  H    0.000006   0.000006   0.000017   0.000017  -0.000000   0.000000
    29  H    0.000002  -0.000004   0.004017  -0.000454   0.000000  -0.000000
    30  H   -0.000004   0.000002  -0.000456   0.003978   0.000000  -0.000000
    31  H    0.000066  -0.000040  -0.000142  -0.000047   0.000000   0.000000
    32  H    0.000072   0.000074  -0.000000   0.003878  -0.000000   0.000000
    33  H    0.004328   0.000166  -0.000030  -0.000171   0.000000  -0.000000
    34  N   -0.000017   0.000039  -0.000041  -0.000000  -0.000013   0.000023
    35  H    0.000023   0.000062   0.000042   0.000014  -0.000007  -0.000003
    36  C    0.000000  -0.000001   0.000003  -0.000000   0.000002   0.000001
    37  H    0.000000  -0.000001   0.000000  -0.000000  -0.000001   0.000000
    38  H    0.000000   0.000000   0.000000  -0.000000  -0.000000  -0.000000
    39  H   -0.000000   0.000000  -0.000000   0.000000   0.000000  -0.000000
              25         26         27         28         29         30
     1  N    0.000000   0.000000  -0.000000  -0.000000   0.000000   0.000000
     2  C   -0.000000   0.000000  -0.000000   0.000000  -0.000000   0.000000
     3  C   -0.000000  -0.000000   0.000000   0.000000   0.000000   0.000000
     4  O   -0.000000   0.000000  -0.000000  -0.000000  -0.000000   0.000000
     5  C   -0.000000   0.000002  -0.000000  -0.000000   0.000000   0.000000
     6  C   -0.000006   0.000191  -0.000034   0.000001  -0.000004  -0.000004
     7  C    0.000292   0.002105  -0.001131  -0.000165  -0.000002  -0.000002
     8  C    0.004184  -0.007086  -0.001188   0.003940  -0.002675  -0.002603
     9  N   -0.026653  -0.027939  -0.028700  -0.026598  -0.027684  -0.027618
    10  C   -0.001963   0.003448  -0.002127   0.376867   0.377171   0.377170
    11  C   -0.002301  -0.002354   0.003755  -0.002142   0.003704  -0.002561
    12  C    0.377319   0.376894   0.376617  -0.002145  -0.002575   0.003698
    13  H   -0.000000  -0.000000   0.000000   0.000000   0.000000  -0.000000
    14  H    0.000000  -0.000000   0.000000  -0.000000   0.000000  -0.000000
[...]
    36  C   -0.000001   0.000000  -0.000000   0.000000  -0.000000  -0.000000
    37  H   -0.000001  -0.000000  -0.000000   0.000000   0.000000  -0.000000
    38  H    0.000000   0.000000   0.000000  -0.000000   0.000000   0.000000
    39  H    0.000000   0.000000  -0.000000   0.000000  -0.000000   0.000000
              13         14         15         16         17         18
     1  N    0.228138  -0.034923  -0.003971  -0.002611   0.000020   0.000010
     2  C   -0.044858   0.363063  -0.035681  -0.040940  -0.004363  -0.002116
     3  C   -0.007156  -0.029483   0.003718  -0.005177   0.005511  -0.001031
     4  O    0.079024   0.002511  -0.000020   0.005046  -0.000172  -0.000002
     5  C    0.000311  -0.030665   0.370241   0.373789  -0.036511  -0.039360
     6  C   -0.000021  -0.001908  -0.031246  -0.028795   0.376813   0.379897
     7  C    0.000001  -0.000025  -0.003855  -0.003594  -0.034054  -0.036287
     8  C   -0.000000   0.000000   0.000079   0.000062  -0.003209  -0.003196
     9  N    0.000000   0.000000   0.000000   0.000000  -0.000005  -0.000012
    10  C   -0.000000   0.000000   0.000000   0.000000  -0.000003  -0.000002
    11  C    0.000000   0.000000  -0.000003   0.000000   0.000002  -0.000007
    12  C    0.000000  -0.000000   0.000000  -0.000003  -0.000007   0.000002
    13  H    0.307352   0.004297  -0.000445   0.002914   0.000009   0.000001
    14  H    0.004297   0.504365  -0.004000   0.004762  -0.000291   0.003135
    15  H   -0.000445  -0.004000   0.546801  -0.032419   0.004660  -0.004330
    16  H    0.002914   0.004762  -0.032419   0.524893  -0.004373   0.004471
    17  H    0.000009  -0.000291   0.004660  -0.004373   0.539687  -0.033879
    18  H    0.000001   0.003135  -0.004330   0.004471  -0.033879   0.556047
    19  H    0.000000   0.000004   0.004095  -0.000274   0.004379  -0.004421
    20  H   -0.000001   0.000002  -0.000355   0.003652  -0.004046   0.004581
    21  H    0.000000   0.000000   0.000004   0.000007   0.003760  -0.000290
    22  H   -0.000000  -0.000001   0.000005   0.000003  -0.000277   0.003701
    23  H   -0.008442   0.000042   0.005378  -0.000298   0.000020   0.000004
    24  H   -0.006241  -0.002383  -0.000109   0.000055  -0.000000   0.000004
    25  H   -0.000000   0.000000  -0.000000   0.000000  -0.000000   0.000000
    26  H   -0.000000  -0.000000   0.000001  -0.000003   0.000006   0.000001
    27  H    0.000000   0.000000  -0.000000   0.000000   0.000000   0.000000
    28  H    0.000000  -0.000000   0.000000   0.000000   0.000000   0.000000
    29  H    0.000000   0.000000  -0.000000   0.000000  -0.000001   0.000000
    30  H   -0.000000  -0.000000   0.000000  -0.000000   0.000000  -0.000001
    31  H    0.000000   0.000000   0.000000  -0.000000   0.000000  -0.000000
    32  H   -0.000000  -0.000000   0.000000  -0.000000   0.000000   0.000001
    33  H    0.000000   0.000000  -0.000003   0.000001   0.000001   0.000006
    34  N    0.003210   0.003888  -0.000108   0.000286   0.004532   0.000338
    35  H   -0.000136   0.001984  -0.000009   0.000011  -0.000067   0.000433
    36  C   -0.000033  -0.000143   0.000002  -0.000002  -0.000042   0.000000
    37  H   -0.000001  -0.000006  -0.000000   0.000000  -0.000059  -0.000002
    38  H    0.000003   0.000001   0.000000  -0.000000   0.000011   0.000000
    39  H   -0.000059  -0.000015   0.000000  -0.000006  -0.000016   0.000000
              19         20         21         22         23         24
     1  N   -0.000003   0.000001  -0.000000   0.000000   0.299561   0.299326
     2  C   -0.000034   0.000078   0.000000   0.000002  -0.022110  -0.016233
     3  C   -0.000001  -0.000013  -0.000002   0.000000   0.004194   0.000701
     4  O    0.000000  -0.000002   0.000000  -0.000000   0.000541   0.001207
     5  C   -0.003285  -0.003024  -0.000007  -0.000004  -0.000370   0.003254
     6  C   -0.032730  -0.033467  -0.001839  -0.002090  -0.000031  -0.000080
     7  C    0.378129   0.379321  -0.034935  -0.034556  -0.000007   0.000001
     8  C   -0.036109  -0.035987   0.378802   0.378835   0.000000  -0.000000
     9  N   -0.002632  -0.002655  -0.034436  -0.034455  -0.000000   0.000000
    10  C   -0.000021  -0.000021  -0.002223  -0.002236   0.000000  -0.000000
    11  C    0.002819  -0.000426   0.004316  -0.003499  -0.000000  -0.000000
    12  C   -0.000438   0.002858  -0.003498   0.004313  -0.000000  -0.000000
    13  H    0.000000  -0.000001   0.000000  -0.000000  -0.008442  -0.006241
    14  H    0.000004   0.000002   0.000000  -0.000001   0.000042  -0.002383
    15  H    0.004095  -0.000355   0.000004   0.000005   0.005378  -0.000109
    16  H   -0.000274   0.003652   0.000007   0.000003  -0.000298   0.000055
    17  H    0.004379  -0.004046   0.003760  -0.000277   0.000020  -0.000000
    18  H   -0.004421   0.004581  -0.000290   0.003701   0.000004   0.000004
    19  H    0.537296  -0.032945   0.004180  -0.003875   0.000001   0.000000
    20  H   -0.032945   0.533080  -0.003896   0.004124   0.000001   0.000000
    21  H    0.004180  -0.003896   0.504980  -0.027882  -0.000000   0.000000
    22  H   -0.003875   0.004124  -0.027882   0.504514   0.000000   0.000000
    23  H    0.000001   0.000001  -0.000000   0.000000   0.311253  -0.013644
    24  H    0.000000   0.000000   0.000000   0.000000  -0.013644   0.298465
    25  H   -0.000017   0.000004  -0.000063  -0.000141   0.000000   0.000000
    26  H    0.000077   0.002289  -0.000150  -0.000038   0.000000  -0.000000
    27  H    0.000042   0.000066   0.003750   0.000019  -0.000000  -0.000000
    28  H    0.000003   0.000003   0.000009   0.000007  -0.000000   0.000000
    29  H    0.000001  -0.000004   0.004274  -0.000513  -0.000000  -0.000000
    30  H   -0.000004   0.000001  -0.000517   0.004262   0.000000  -0.000000
    31  H    0.000003  -0.000017  -0.000141  -0.000061   0.000000   0.000000
    32  H    0.000065   0.000042   0.000018   0.003753   0.000000  -0.000000
    33  H    0.002314   0.000075  -0.000038  -0.000153   0.000000  -0.000000
    34  N   -0.000002   0.000004  -0.000004  -0.000000  -0.000079   0.000238
    35  H    0.000000   0.000001   0.000000   0.000000  -0.000005  -0.000017
    36  C    0.000000  -0.000000   0.000000   0.000000   0.000002  -0.000004
    37  H    0.000000  -0.000000   0.000000  -0.000000  -0.000000   0.000000
    38  H   -0.000000   0.000000  -0.000000  -0.000000  -0.000000  -0.000001
    39  H   -0.000000  -0.000000  -0.000000   0.000000  -0.000000  -0.000001
              25         26         27         28         29         30
     1  N   -0.000000   0.000000   0.000000  -0.000000   0.000000   0.000000
     2  C    0.000000  -0.000000  -0.000000   0.000000  -0.000000   0.000000
     3  C   -0.000000   0.000000  -0.000000  -0.000000   0.000000   0.000000
     4  O   -0.000000   0.000000  -0.000000  -0.000000  -0.000000   0.000000
     5  C   -0.000000   0.000002   0.000000  -0.000000   0.000000   0.000000
     6  C   -0.000001   0.000015  -0.000022   0.000001  -0.000006  -0.000005
     7  C    0.000095   0.002731  -0.000799  -0.000143   0.000030   0.000030
     8  C    0.003859  -0.004788  -0.001737   0.003832  -0.003105  -0.003081
     9  N   -0.028170  -0.028187  -0.029445  -0.027972  -0.028799  -0.028782
    10  C   -0.002729   0.003879  -0.002376   0.377594   0.377373   0.377370
    11  C   -0.002364  -0.002468   0.003962  -0.002702   0.004020  -0.002595
    12  C    0.379086   0.377046   0.377228  -0.002711  -0.002577   0.004014
    13  H   -0.000000  -0.000000   0.000000   0.000000   0.000000  -0.000000
    14  H    0.000000  -0.000000   0.000000  -0.000000   0.000000  -0.000000
    15  H   -0.000000   0.000001  -0.000000   0.000000  -0.000000   0.000000
    16  H    0.000000  -0.000003   0.000000   0.000000   0.000000  -0.000000
    17  H   -0.000000   0.000006   0.000000   0.000000  -0.000001   0.000000
    18  H    0.000000   0.000001   0.000000   0.000000   0.000000  -0.000001
    19  H   -0.000017   0.000077   0.000042   0.000003   0.000001  -0.000004
    20  H    0.000004   0.002289   0.000066   0.000003  -0.000004   0.000001
    21  H   -0.000063  -0.000150   0.003750   0.000009   0.004274  -0.000517
    22  H   -0.000141  -0.000038   0.000019   0.000007  -0.000513   0.004262
    23  H    0.000000   0.000000  -0.000000  -0.000000  -0.000000   0.000000
    24  H    0.000000  -0.000000  -0.000000   0.000000  -0.000000  -0.000000
    25  H    0.450195  -0.021419  -0.020816   0.003520  -0.000423   0.000042
    26  H   -0.021419   0.469679  -0.022265   0.000011   0.000009  -0.000169
    27  H   -0.020816  -0.022265   0.466132  -0.000314   0.002954  -0.000024
    28  H    0.003520   0.000011  -0.000314   0.452359  -0.020870  -0.020857
    29  H   -0.000423   0.000009   0.002954  -0.020870   0.463023  -0.021718
    30  H    0.000042  -0.000169  -0.000024  -0.020857  -0.021718   0.462742
    31  H    0.002930  -0.000365  -0.000013   0.003519   0.000040  -0.000418
    32  H   -0.000014   0.000020  -0.000169  -0.000317  -0.000024   0.002955
    33  H   -0.000362   0.003115   0.000019   0.000011  -0.000170   0.000009
    34  N    0.000000  -0.000000   0.000000  -0.000000   0.000000  -0.000000
    35  H    0.000000   0.000000  -0.000000  -0.000000  -0.000000   0.000000
    36  C   -0.000000   0.000000   0.000000   0.000000  -0.000000   0.000000
    37  H   -0.000000  -0.000000   0.000000   0.000000  -0.000000   0.000000
    38  H    0.000000  -0.000000   0.000000  -0.000000   0.000000  -0.000000
    39  H    0.000000   0.000000  -0.000000   0.000000  -0.000000   0.000000
              31         32         33         34         35         36
     1  N   -0.000000  -0.000000   0.000000   0.000162   0.000064  -0.000067
     2  C   -0.000000  -0.000000  -0.000000  -0.102415   0.001360   0.004938
     3  C    0.000000   0.000000  -0.000000   0.319119  -0.026053  -0.026017
     4  O    0.000000   0.000000  -0.000000  -0.082519   0.002627  -0.003719
     5  C   -0.000000   0.000000   0.000003  -0.002056  -0.000197  -0.000072
     6  C   -0.000001  -0.000021   0.000012  -0.001033   0.000600  -0.000010
     7  C    0.000091  -0.000785   0.002720   0.000104  -0.000010  -0.000001
     8  C    0.003861  -0.001751  -0.004785   0.000001  -0.000001   0.000000
     9  N   -0.028163  -0.029459  -0.028228   0.000000  -0.000000  -0.000000
    10  C   -0.002733  -0.002371   0.003890  -0.000000   0.000000   0.000000
    11  C    0.379138   0.377196   0.376986   0.000000   0.000000  -0.000000
    12  C   -0.002347   0.003965  -0.002469   0.000000   0.000000  -0.000000
    13  H    0.000000  -0.000000   0.000000   0.003210  -0.000136  -0.000033
    14  H    0.000000  -0.000000   0.000000   0.003888   0.001984  -0.000143
    15  H    0.000000   0.000000  -0.000003  -0.000108  -0.000009   0.000002
    16  H   -0.000000  -0.000000   0.000001   0.000286   0.000011  -0.000002
    17  H    0.000000   0.000000   0.000001   0.004532  -0.000067  -0.000042
    18  H   -0.000000   0.000001   0.000006   0.000338   0.000433   0.000000
    19  H    0.000003   0.000065   0.002314  -0.000002   0.000000   0.000000
    20  H   -0.000017   0.000042   0.000075   0.000004   0.000001  -0.000000
    21  H   -0.000141   0.000018  -0.000038  -0.000004   0.000000   0.000000
    22  H   -0.000061   0.003753  -0.000153  -0.000000   0.000000   0.000000
    23  H    0.000000   0.000000   0.000000  -0.000079  -0.000005   0.000002
    24  H    0.000000  -0.000000  -0.000000   0.000238  -0.000017  -0.000004
    25  H    0.002930  -0.000014  -0.000362   0.000000   0.000000  -0.000000
    26  H   -0.000365   0.000020   0.003115  -0.000000   0.000000   0.000000
    27  H   -0.000013  -0.000169   0.000019   0.000000  -0.000000   0.000000
    28  H    0.003519  -0.000317   0.000011  -0.000000  -0.000000   0.000000
    29  H    0.000040  -0.000024  -0.000170   0.000000  -0.000000  -0.000000
    30  H   -0.000418   0.002955   0.000009  -0.000000   0.000000   0.000000
    31  H    0.450023  -0.020817  -0.021427  -0.000000   0.000000  -0.000000
    32  H   -0.020817   0.466462  -0.022330  -0.000000   0.000000   0.000000
    33  H   -0.021427  -0.022330   0.470414   0.000000   0.000000  -0.000000
    34  N   -0.000000  -0.000000   0.000000   7.001442   0.309186   0.234273
    35  H    0.000000   0.000000   0.000000   0.309186   0.377440  -0.024714
    36  C   -0.000000   0.000000  -0.000000   0.234273  -0.024714   5.003360
    37  H    0.000000   0.000000  -0.000000  -0.033990  -0.001551   0.379618
    38  H   -0.000000  -0.000000   0.000000  -0.035557  -0.000684   0.386008
    39  H   -0.000000   0.000000  -0.000000  -0.033329   0.003289   0.383923
              37         38         39
     1  N   -0.000000   0.000008   0.000009
     2  C   -0.000133  -0.000215   0.000809
     3  C    0.002728  -0.000380  -0.002089
     4  O    0.000326   0.000474   0.009968
     5  C    0.000018  -0.000007  -0.000009
     6  C    0.000017   0.000001   0.000001
     7  C   -0.000001   0.000000   0.000000
     8  C   -0.000000   0.000000   0.000000
     9  N   -0.000000   0.000000  -0.000000
    10  C    0.000000  -0.000000   0.000000
    11  C    0.000000   0.000000  -0.000000
    12  C   -0.000000   0.000000   0.000000
    13  H   -0.000001   0.000003  -0.000059
    14  H   -0.000006   0.000001  -0.000015
    15  H   -0.000000   0.000000   0.000000
    16  H    0.000000  -0.000000  -0.000006
    17  H   -0.000059   0.000011  -0.000016
    18  H   -0.000002   0.000000   0.000000
    19  H    0.000000  -0.000000  -0.000000
    20  H   -0.000000   0.000000  -0.000000
    21  H    0.000000  -0.000000  -0.000000
    22  H   -0.000000  -0.000000   0.000000
    23  H   -0.000000  -0.000000  -0.000000
    24  H    0.000000  -0.000001  -0.000001
    25  H   -0.000000   0.000000   0.000000
    26  H   -0.000000  -0.000000   0.000000
    27  H    0.000000   0.000000  -0.000000
    28  H    0.000000  -0.000000   0.000000
    29  H   -0.000000   0.000000  -0.000000
    30  H    0.000000  -0.000000   0.000000
    31  H    0.000000  -0.000000  -0.000000
    32  H    0.000000  -0.000000   0.000000
    33  H   -0.000000   0.000000  -0.000000
    34  N   -0.033990  -0.035557  -0.033329
    35  H   -0.001551  -0.000684   0.003289
    36  C    0.379618   0.386008   0.383923
    37  H    0.503049  -0.028649  -0.021350
    38  H   -0.028649   0.481914  -0.021853
    39  H   -0.021350  -0.021853   0.444890
 Mulliken charges:
               1
     1  N   -0.744105
     2  C   -0.122052
     3  C    0.642183
     4  O   -0.506236
     5  C   -0.292053
     6  C   -0.294784
     7  C   -0.310444
     8  C   -0.150380
     9  N   -0.374252
    10  C   -0.337921
    11  C   -0.341286
    12  C   -0.341426
    13  H    0.442131
    14  H    0.215788
    15  H    0.181568
    16  H    0.198540
    17  H    0.181964
    18  H    0.172304
    19  H    0.183384
    20  H    0.186677
    21  H    0.205821
    22  H    0.206243
    23  H    0.423991
    24  H    0.435462
    25  H    0.236788
    26  H    0.220971
    27  H    0.223809
    28  H    0.235017
    29  H    0.226483
    30  H    0.226745
    31  H    0.236899
    32  H    0.223581
    33  H    0.220392
    34  N   -0.585692
    35  H    0.356447
    36  C   -0.337300
    37  H    0.199983
    38  H    0.218927
    39  H    0.235836
 Sum of Mulliken charges =   2.00000
 Mulliken charges with hydrogens summed into heavy atoms:
               1
     1  N    0.557478
     2  C    0.093736
     3  C    0.642183
     4  O   -0.506236
     5  C    0.088055
     6  C    0.059484
     7  C    0.059616
     8  C    0.261683
     9  N   -0.374252
    10  C    0.350324
    11  C    0.339586
    12  C    0.340142
    34  N   -0.229244
    36  C    0.317446
 Electronic spatial extent (au):  <R**2>=           5409.6534
 Charge=              2.0000 electrons
 Dipole moment (field-independent basis, Debye):
    X=             -3.1848    Y=             -3.9943    Z=             -3.1660  Tot=              6.0100
 Quadrupole moment (field-independent basis, Debye-Ang):
   XX=             44.7188   YY=            -47.9711   ZZ=            -76.0004
   XY=            -19.7884   XZ=            -13.3340   YZ=             -0.7694
 Traceless Quadrupole moment (field-independent basis, Debye-Ang):
   XX=             71.1364   YY=            -21.5535   ZZ=            -49.5828
   XY=            -19.7884   XZ=            -13.3340   YZ=             -0.7694
 Octapole moment (field-independent basis, Debye-Ang**2):
  XXX=           -137.4163  YYY=            -27.0402  ZZZ=             -3.8020  XYY=             85.4428
  XXY=            -43.5046  XXZ=            -36.6928  XZZ=            -13.9037  YZZ=             -0.3541
  YYZ=             -3.1996  XYZ=             -1.4712
 Hexadecapole moment (field-independent basis, Debye-Ang**3):
 XXXX=          -3077.1260 YYYY=           -709.5251 ZZZZ=           -329.9302 XXXY=           -327.8407
 XXXZ=           -181.1916 YYYX=           -115.6412 YYYZ=              0.4591 ZZZX=            -30.8303
 ZZZY=             -5.5967 XXYY=           -574.5544 XXZZ=           -863.5994 YYZZ=           -202.9342
 XXYZ=              4.5404 YYXZ=             -5.3757 ZZXY=            -15.1003
 N-N= 9.687670274338D+02 E-N=-3.379909345455D+03  KE= 6.288565774758D+02
 No NMR shielding tensors so no spin-rotation constants.
 Leave Link  601 at Sun May 31 21:50:00 2026, MaxMem=    67108864 cpu:               2.0 elap:               0.2
 (Enter /software/local/apps/gaussian-16.0/g16/l9999.exe)
 Unable to Open any file for archive entry.
 1\1\GINC-BP1-COMPUTE077\FOpt\RB3LYP\6-31G(d)\C10H25N3O1(2+)\XV24323\31
 -May-2026\0\\#P b3lyp/6-31g* opt\\KM3_nterm b3lyp/6-31g* geometry opti
 misation\\2,1\N,21.441506546,4.6969671254,5.5913708315\C,21.6147573356
 ,5.7954332951,4.554720852\C,23.011131987,5.4503831324,3.9595232473\O,2
 3.8187144104,4.9339986158,4.7353988846\C,21.5989396191,7.1564988666,5.
 2831588865\C,21.7469228717,8.3762441641,4.3541325923\C,21.695394047,9.
 6988687493,5.1522419461\C,21.8620440264,10.8954743969,4.2089295068\N,2
 1.8365283902,12.2846939756,4.855024881\C,22.0182792294,13.3079523986,3
 .7532622784\C,20.516024645,12.5465533682,5.5398266299\C,22.9606227273,
 12.4470260097,5.8508646866\H,22.4299325923,4.483110841,5.880804569\H,2
 0.7979321722,5.7118723947,3.8328541967\H,20.6510468487,7.2399591249,5.
 8324280723\H,22.4105076546,7.1558112677,6.0224114154\H,22.6966178761,8
 .3133472479,3.8100344559\H,20.9440339429,8.3692531614,3.6045408245\H,2
 0.7392813992,9.7570502527,5.6844492003\H,22.4909230686,9.6877619719,5.
 9056648287\H,22.8189731199,10.8382531712,3.6821310462\H,21.0647868857,
 10.9090324578,3.4600419455\H,20.8728096261,4.9730260138,6.3988734454\H
 ,21.0408944843,3.8376450504,5.1958837985\H,22.9573747594,13.4762253641
 ,6.2125224821\H,22.8079384454,11.7674311007,6.688437961\H,23.908442870
 1,12.233040967,5.3541807568\H,22.0021357515,14.3052287332,4.1947649461
 \H,22.9769328124,13.1347851235,3.2621594058\H,21.2028346518,13.2062231
 868,3.0356915015\H,20.5117575861,13.5751606911,5.9031492275\H,19.70862
 54733,12.4060648551,4.8192389089\H,20.3989845363,11.8640977618,6.38081
 36267\N,23.2358784678,5.7579984907,2.677395943\H,22.4629499134,6.07998
 48305,2.1079246903\C,24.507126299,5.4654882552,1.9987466329\H,24.83982
 57008,6.3475263371,1.4469322239\H,24.3812360249,4.6284253768,1.3061865
 87\H,25.246351202,5.202101873,2.7542820853\\Version=ES64L-G16RevC.01\S
 tate=1-A\HF=-635.0744808\RMSD=5.555e-09\RMSF=4.394e-06\Dipole=-2.13360
 41,0.8669551,0.5358481\Quadrupole=-32.2439474,56.4948376,-24.2508902,4
 .6058696,-8.6803314,3.8989491\PG=C01 [X(C10H25N3O1)]\\@
 The archive entry for this job was punched.


 YOU CAN WIPE THE SLATE CLEAN, BUT YOU'LL STILL
 HAVE TO EAT A LITTLE CHALK DUST.
 Job cpu time:       0 days  2 hours 51 minutes 56.5 seconds.
 Elapsed time:       0 days  0 hours 11 minutes  4.8 seconds.
 File lengths (MBytes):  RWF=    160 Int=      0 D2E=      0 Chk=     16 Scr=     16
 Normal termination of Gaussian 16 at Sun May 31 21:50:00 2026.
