 Entering Gaussian System, Link 0=g16
 Initial command:
 /software/local/apps/gaussian-16.0/g16/l1.exe "KM3/cterm/Gau-3302185.inp" -scrdir="KM3/cterm/"
 Entering Link 1 = /software/local/apps/gaussian-16.0/g16/l1.exe PID=   3302186.
  
 Copyright (c) 1988-2019, Gaussian, Inc.  All Rights Reserved.
  
 This is part of the Gaussian(R) 16 program.  It is based on
 the Gaussian(R) 09 system (copyright 2009, Gaussian, Inc.),
 the Gaussian(R) 03 system (copyright 2003, Gaussian, Inc.),
 the Gaussian(R) 98 system (copyright 1998, Gaussian, Inc.),
 the Gaussian(R) 94 system (copyright 1995, Gaussian, Inc.),
 the Gaussian 92(TM) system (copyright 1992, Gaussian, Inc.),
 the Gaussian 90(TM) system (copyright 1990, Gaussian, Inc.),
 the Gaussian 88(TM) system (copyright 1988, Gaussian, Inc.),
 the Gaussian 86(TM) system (copyright 1986, Carnegie Mellon
 University), and the Gaussian 82(TM) system (copyright 1983,
 Carnegie Mellon University). Gaussian is a federally registered
 trademark of Gaussian, Inc.
  
 This software contains proprietary and confidential information,
 including trade secrets, belonging to Gaussian, Inc.
  
 This software is provided under written license and may be
 used, copied, transmitted, or stored only in accord with that
 written license.
  
 The following legend is applicable only to US Government
 contracts under FAR:
  
                    RESTRICTED RIGHTS LEGEND
  
 Use, reproduction and disclosure by the US Government is
 subject to restrictions as set forth in subparagraphs (a)
 and (c) of the Commercial Computer Software - Restricted
 Rights clause in FAR 52.227-19.
  
 Gaussian, Inc.
 340 Quinnipiac St., Bldg. 40, Wallingford CT 06492
  
  
 ---------------------------------------------------------------
 Warning -- This program may not be used in any manner that
 competes with the business of Gaussian, Inc. or will provide
 assistance to any competitor of Gaussian, Inc.  The licensee
 of this program is prohibited from giving any competitor of
 Gaussian, Inc. access to this program.  By using this program,
 the user acknowledges that Gaussian, Inc. is engaged in the
 business of creating and licensing software in the field of
 computational chemistry and represents and warrants to the
 licensee that it is not a competitor of Gaussian, Inc. and that
 it will not use this program in any manner prohibited above.
 ---------------------------------------------------------------
  

 Cite this work as:
 Gaussian 16, Revision C.01,
 M. J. Frisch, G. W. Trucks, H. B. Schlegel, G. E. Scuseria, 
 M. A. Robb, J. R. Cheeseman, G. Scalmani, V. Barone, 
 G. A. Petersson, H. Nakatsuji, X. Li, M. Caricato, A. V. Marenich, 
 J. Bloino, B. G. Janesko, R. Gomperts, B. Mennucci, H. P. Hratchian, 
 J. V. Ortiz, A. F. Izmaylov, J. L. Sonnenberg, D. Williams-Young, 
 F. Ding, F. Lipparini, F. Egidi, J. Goings, B. Peng, A. Petrone, 
 T. Henderson, D. Ranasinghe, V. G. Zakrzewski, J. Gao, N. Rega, 
 G. Zheng, W. Liang, M. Hada, M. Ehara, K. Toyota, R. Fukuda, 
 J. Hasegawa, M. Ishida, T. Nakajima, Y. Honda, O. Kitao, H. Nakai, 
 T. Vreven, K. Throssell, J. A. Montgomery, Jr., J. E. Peralta, 
 F. Ogliaro, M. J. Bearpark, J. J. Heyd, E. N. Brothers, K. N. Kudin, 
 V. N. Staroverov, T. A. Keith, R. Kobayashi, J. Normand, 
 K. Raghavachari, A. P. Rendell, J. C. Burant, S. S. Iyengar, 
 J. Tomasi, M. Cossi, J. M. Millam, M. Klene, C. Adamo, R. Cammi, 
 J. W. Ochterski, R. L. Martin, K. Morokuma, O. Farkas, 
 J. B. Foresman, and D. J. Fox, Gaussian, Inc., Wallingford CT, 2019.
 
 ******************************************
 Gaussian 16:  ES64L-G16RevC.01  3-Jul-2019
                31-May-2026 
 ******************************************
 %nprocshared=16
 Will use up to   16 processors via shared memory.
 %mem=512MB
 %chk=KM3_cterm_hf.chk
 -------------------------------------------
 #p hf/6-31g(d) SCF=Tight Pop=MK IOp(6/33=2)
 -------------------------------------------
 1/38=1,172=1/1;
 2/12=2,17=6,18=5,40=1/2;
 3/5=1,6=6,7=1,11=9,25=1,30=1/1,2,3;
 4//1;
 5/5=2,32=2,38=5/2;
 6/7=2,8=2,9=2,10=2,15=8,20=1,28=1,33=2/1,2;
 99/5=1,9=1/99;
 Leave Link    1 at Sun May 31 21:57:44 2026, MaxMem=    67108864 cpu:               3.1 elap:               0.2
 (Enter /software/local/apps/gaussian-16.0/g16/l101.exe)
 ---------
 KM3_cterm
 ---------
 Symbolic Z-matrix:
 Charge =  0 Multiplicity = 1
 C                     5.1208    0.8074    0.58555 
 H                     4.777     1.54504   1.31775 
 H                     5.73594   1.31502  -0.16465 
 H                     5.75964   0.07426   1.08774 
 C                     3.98876   0.07168  -0.12419 
 O                     4.21575  -0.82036  -0.94021 
 N                     2.7358    0.48384   0.19807 
 H                     2.57196   1.1709    0.92379 
 C                     1.51904  -0.08558  -0.37332 
 C                     0.39559   0.97151  -0.19986 
 O                     0.26581   1.43664   0.96506 
 C                     1.20491  -1.42424   0.34802 
 C                    -0.09603  -2.17409  -0.01299 
 C                    -1.39456  -1.56036   0.59541 
 C                    -2.2015   -0.84879  -0.48993 
 N                    -3.23435   0.20085  -0.01407 
 C                    -3.42662   1.16335  -1.16015 
 C                    -4.52809  -0.46933   0.3253 
 C                    -2.76458   1.00031   1.18131 
 O                    -0.32404   1.21843  -1.2087 
 H                     1.6903   -0.27125  -1.43636 
 H                     2.053    -2.08736   0.1435 
 H                     1.20711  -1.22325   1.42719 
 H                    -0.19038  -2.26149  -1.10447 
 H                     0.00168  -3.20135   0.35695 
 H                    -1.9944   -2.34074   1.08122 
 H                    -1.09052  -0.84933   1.36648 
 H                    -1.51652  -0.28399  -1.12488 
 H                    -2.77658  -1.55609  -1.09633 
 H                    -3.47621   1.81764   1.31992 
 H                    -2.78035   0.3553    2.06018 
 H                    -1.74661   1.38291   1.01094 
 H                    -4.20263   1.88281  -0.88913 
 H                    -2.45632   1.64335  -1.32817 
 H                    -3.73256   0.59582  -2.04173 
 H                    -5.23576   0.27805   0.69042 
 H                    -4.9277   -0.95196  -0.56862 
 H                    -4.3467   -1.21609   1.10024 
 
 ITRead=  0  0  0  0  0  0  0  0  0  0  0  0  0  0  0  0  0  0  0  0
 ITRead=  0  0  0  0  0  0  0  0  0  0  0  0  0  0  0  0  0  0
 MicOpt= -1 -1 -1 -1 -1 -1 -1 -1 -1 -1 -1 -1 -1 -1 -1 -1 -1 -1 -1 -1
 MicOpt= -1 -1 -1 -1 -1 -1 -1 -1 -1 -1 -1 -1 -1 -1 -1 -1 -1 -1
 NAtoms=     38 NQM=       38 NQMF=       0 NMMI=      0 NMMIF=      0
                NMic=       0 NMicF=      0.
                    Isotopes and Nuclear Properties:
 (Nuclear quadrupole moments (NQMom) in fm**2, nuclear magnetic moments (NMagM)
  in nuclear magnetons)

  Atom         1           2           3           4           5           6           7           8           9          10
 IAtWgt=          12           1           1           1          12          16          14           1          12          12
 AtmWgt=  12.0000000   1.0078250   1.0078250   1.0078250  12.0000000  15.9949146  14.0030740   1.0078250  12.0000000  12.0000000
 NucSpn=           0           1           1           1           0           0           2           1           0           0
 AtZEff=  -0.0000000  -0.0000000  -0.0000000  -0.0000000  -0.0000000  -0.0000000  -0.0000000  -0.0000000  -0.0000000  -0.0000000
 NQMom=    0.0000000   0.0000000   0.0000000   0.0000000   0.0000000   0.0000000   2.0440000   0.0000000   0.0000000   0.0000000
 NMagM=    0.0000000   2.7928460   2.7928460   2.7928460   0.0000000   0.0000000   0.4037610   2.7928460   0.0000000   0.0000000
 AtZNuc=   6.0000000   1.0000000   1.0000000   1.0000000   6.0000000   8.0000000   7.0000000   1.0000000   6.0000000   6.0000000

  Atom        11          12          13          14          15          16          17          18          19          20
 IAtWgt=          16          12          12          12          12          14          12          12          12          16
 AtmWgt=  15.9949146  12.0000000  12.0000000  12.0000000  12.0000000  14.0030740  12.0000000  12.0000000  12.0000000  15.9949146
 NucSpn=           0           0           0           0           0           2           0           0           0           0
 AtZEff=  -0.0000000  -0.0000000  -0.0000000  -0.0000000  -0.0000000  -0.0000000  -0.0000000  -0.0000000  -0.0000000  -0.0000000
 NQMom=    0.0000000   0.0000000   0.0000000   0.0000000   0.0000000   2.0440000   0.0000000   0.0000000   0.0000000   0.0000000
 NMagM=    0.0000000   0.0000000   0.0000000   0.0000000   0.0000000   0.4037610   0.0000000   0.0000000   0.0000000   0.0000000
 AtZNuc=   8.0000000   6.0000000   6.0000000   6.0000000   6.0000000   7.0000000   6.0000000   6.0000000   6.0000000   8.0000000

  Atom        21          22          23          24          25          26          27          28          29          30
 IAtWgt=           1           1           1           1           1           1           1           1           1           1
 AtmWgt=   1.0078250   1.0078250   1.0078250   1.0078250   1.0078250   1.0078250   1.0078250   1.0078250   1.0078250   1.0078250
 NucSpn=           1           1           1           1           1           1           1           1           1           1
 AtZEff=  -0.0000000  -0.0000000  -0.0000000  -0.0000000  -0.0000000  -0.0000000  -0.0000000  -0.0000000  -0.0000000  -0.0000000
 NQMom=    0.0000000   0.0000000   0.0000000   0.0000000   0.0000000   0.0000000   0.0000000   0.0000000   0.0000000   0.0000000
 NMagM=    2.7928460   2.7928460   2.7928460   2.7928460   2.7928460   2.7928460   2.7928460   2.7928460   2.7928460   2.7928460
 AtZNuc=   1.0000000   1.0000000   1.0000000   1.0000000   1.0000000   1.0000000   1.0000000   1.0000000   1.0000000   1.0000000

  Atom        31          32          33          34          35          36          37          38
 IAtWgt=           1           1           1           1           1           1           1           1
 AtmWgt=   1.0078250   1.0078250   1.0078250   1.0078250   1.0078250   1.0078250   1.0078250   1.0078250
 NucSpn=           1           1           1           1           1           1           1           1
 AtZEff=  -0.0000000  -0.0000000  -0.0000000  -0.0000000  -0.0000000  -0.0000000  -0.0000000  -0.0000000
 NQMom=    0.0000000   0.0000000   0.0000000   0.0000000   0.0000000   0.0000000   0.0000000   0.0000000
 NMagM=    2.7928460   2.7928460   2.7928460   2.7928460   2.7928460   2.7928460   2.7928460   2.7928460
 AtZNuc=   1.0000000   1.0000000   1.0000000   1.0000000   1.0000000   1.0000000   1.0000000   1.0000000
 Leave Link  101 at Sun May 31 21:57:44 2026, MaxMem=    67108864 cpu:               1.8 elap:               0.1
 (Enter /software/local/apps/gaussian-16.0/g16/l202.exe)
                          Input orientation:                          
 ---------------------------------------------------------------------
 Center     Atomic      Atomic             Coordinates (Angstroms)
 Number     Number       Type             X           Y           Z
 ---------------------------------------------------------------------
      1          6           0        5.120796    0.807404    0.585549
      2          1           0        4.777001    1.545043    1.317751
      3          1           0        5.735940    1.315024   -0.164653
      4          1           0        5.759643    0.074256    1.087742
      5          6           0        3.988756    0.071681   -0.124191
      6          8           0        4.215749   -0.820356   -0.940209
      7          7           0        2.735796    0.483844    0.198065
      8          1           0        2.571964    1.170898    0.923793
      9          6           0        1.519044   -0.085580   -0.373318
     10          6           0        0.395590    0.971511   -0.199858
     11          8           0        0.265814    1.436636    0.965062
     12          6           0        1.204911   -1.424235    0.348021
     13          6           0       -0.096034   -2.174092   -0.012989
     14          6           0       -1.394557   -1.560355    0.595408
     15          6           0       -2.201498   -0.848790   -0.489934
     16          7           0       -3.234350    0.200849   -0.014073
     17          6           0       -3.426624    1.163350   -1.160149
     18          6           0       -4.528093   -0.469325    0.325295
     19          6           0       -2.764577    1.000310    1.181307
     20          8           0       -0.324039    1.218431   -1.208699
     21          1           0        1.690303   -0.271252   -1.436355
     22          1           0        2.053001   -2.087356    0.143495
     23          1           0        1.207113   -1.223252    1.427187
     24          1           0       -0.190377   -2.261490   -1.104466
     25          1           0        0.001679   -3.201354    0.356949
     26          1           0       -1.994401   -2.340741    1.081218
     27          1           0       -1.090523   -0.849333    1.366478
     28          1           0       -1.516522   -0.283994   -1.124883
     29          1           0       -2.776582   -1.556087   -1.096329
     30          1           0       -3.476210    1.817635    1.319917
     31          1           0       -2.780347    0.355302    2.060184
     32          1           0       -1.746608    1.382911    1.010937
     33          1           0       -4.202625    1.882810   -0.889129
     34          1           0       -2.456321    1.643349   -1.328169
     35          1           0       -3.732563    0.595818   -2.041726
     36          1           0       -5.235760    0.278050    0.690423
     37          1           0       -4.927701   -0.951957   -0.568619
     38          1           0       -4.346695   -1.216093    1.100244
 ---------------------------------------------------------------------
                    Distance matrix (angstroms):
                    1          2          3          4          5
     1  C    0.000000
     2  H    1.094726   0.000000
     3  H    1.094935   1.780448   0.000000
     4  H    1.094454   1.783733   1.763111   0.000000
     5  C    1.525298   2.207107   2.144806   2.145887   0.000000
     6  O    2.407623   3.317906   2.733554   2.701208   1.230098
     7  N    2.437839   2.558585   3.134213   3.178512   1.357806
     8  H    2.596744   2.270986   3.349064   3.375026   2.076981
     9  C    3.832684   4.016582   4.448308   4.488087   2.487222
    10  C    4.792845   4.672134   5.351502   5.588922   3.704897
    11  O    4.910276   4.526251   5.586889   5.661562   4.112161
    12  C    4.513401   4.745189   5.319455   4.851623   3.195394
    13  C    6.038450   6.272902   6.797709   6.368330   4.662764
    14  C    6.932258   6.946467   7.725897   7.355061   5.671104
    15  C    7.583906   7.595894   8.233518   8.168283   6.268993
    16  N    8.398567   8.231789   9.040474   9.062115   7.225100
    17  C    8.731125   8.578178   9.217733   9.519803   7.566559
    18  C    9.736469   9.572221  10.429493  10.330262   8.545844
    19  C    7.910199   7.562457   8.612168   8.574885   6.940762
    20  O    5.747564   5.701775   6.150017   6.602573   4.592537
    21  H    4.125515   4.517934   4.527767   4.801038   2.668757
    22  H    4.241039   4.689710   5.023463   4.393559   2.912086
    23  H    4.488745   4.518798   5.430200   4.745975   3.438192
    24  H    6.362611   6.710564   6.985409   6.757531   4.885671
    25  H    6.505979   6.801112   7.317888   6.664670   5.180834
    26  H    7.796315   7.810707   8.641469   8.121419   6.562847
    27  H    6.475732   6.337448   7.323210   6.917766   5.373029
    28  H    6.940513   6.994303   7.488465   7.613582   5.606779
    29  H    8.413286   8.514776   9.031851   8.960766   7.025986
    30  H    8.687254   8.257712   9.344532   9.401822   7.801251
    31  H    8.050280   7.686364   8.854271   8.599771   7.118475
    32  H    6.904593   6.532832   7.574638   7.619861   5.991848
    33  H    9.500387   9.253004   9.981098  10.316282   8.424016
    34  H    7.859632   7.702695   8.280985   8.706362   6.742308
    35  H    9.237386   9.197815   9.679525  10.008375   7.973106
    36  H   10.370606  10.112082  11.053718  11.004466   9.262714
    37  H   10.266438  10.196796  10.909429  10.863515   8.986020
    38  H    9.694990   9.534831  10.472156  10.188387   8.522755
                    6          7          8          9         10
     6  O    0.000000
     7  N    2.277469   0.000000
     8  H    3.184592   1.012702   0.000000
     9  C    2.851925   1.459866   2.090424   0.000000
    10  C    4.283984   2.423371   2.457428   1.552314   0.000000
    11  O    4.932145   2.756249   2.321777   2.383063   1.261040
    12  C    3.330068   2.450890   2.989158   1.552742   2.587426
    13  C    4.613438   3.889528   4.380038   2.664619   3.189268
    14  C    5.863553   4.625629   4.827097   3.406239   3.201159
    15  C    6.433088   5.160051   5.372495   3.799805   3.184730
    16  N    7.576580   5.980613   5.961029   4.775547   3.715495
    17  C    7.898692   6.346802   6.350270   5.161256   3.945666
    18  C    8.841917   7.327264   7.311589   6.099441   5.156981
    19  C    7.519349   5.611382   5.345473   4.684594   3.448928
    20  O    4.983815   3.446911   3.596751   2.407335   1.263565
    21  H    2.631645   2.081959   2.903002   1.092635   2.179373
    22  H    2.730784   2.660875   3.390340   2.135255   3.495936
    23  H    3.849517   2.600344   2.801460   2.152537   2.850058
    24  H    4.638728   4.218523   4.850325   2.862042   3.407927
    25  H    5.011004   4.591440   5.103358   3.541713   4.228239
    26  H    6.705498   5.579696   5.762645   4.421054   4.280681
    27  H    5.786032   4.217021   4.206081   3.228010   2.824431
    28  H    5.760271   4.519068   4.798906   3.133509   2.467415
    29  H    7.032664   6.018562   6.334373   4.597558   4.153924
    30  H    8.439988   6.451866   6.095539   5.607302   4.244582
    31  H    7.702590   5.823388   5.532071   4.959947   3.946401
    32  H    6.649140   4.643385   4.324651   3.838894   2.494852
    33  H    8.841874   7.161060   7.049011   6.072735   4.738053
    34  H    7.122982   5.534611   5.529755   4.438971   3.139721
    35  H    8.148285   6.846084   6.990857   5.552231   4.535997
    36  H    9.653832   7.989398   7.862073   6.847711   5.743308
    37  H    9.151944   7.834444   7.935917   6.507632   5.672137
    38  H    8.811101   7.339305   7.320977   6.152750   5.381927
                   11         12         13         14         15
    11  O    0.000000
    12  C    3.073634   0.000000
    13  C    3.758307   1.544368   0.000000
    14  C    3.446075   2.614759   1.559802   0.000000
    15  C    3.664398   3.554846   2.533156   1.528217   0.000000
    16  N    3.838883   4.741207   3.935654   2.618806   1.547569
    17  C    4.269111   5.515550   4.852559   3.824898   2.449251
    18  C    5.198416   5.812031   4.760653   3.329017   2.494321
    19  C    3.069269   4.725423   4.315587   2.962640   2.555245
    20  O    2.262913   3.427061   3.604292   3.481733   2.883553
    21  H    3.273050   2.179214   2.972839   3.912315   4.046650
    22  H    4.035781   1.095818   2.156470   3.516762   4.476164
    23  H    2.859127   1.097724   2.162498   2.752123   3.928639
    24  H    4.262299   2.181179   1.099027   2.198002   2.533373
    25  H    4.685138   2.146159   1.096207   2.167767   3.332530
    26  H    4.403481   3.407808   2.197466   1.097646   2.176540
    27  H    2.688204   2.576196   2.155673   1.092034   2.163454
    28  H    3.241166   3.297847   2.612770   2.145547   1.091488
    29  H    4.739398   4.237431   2.956500   2.184487   1.094854
    30  H    3.778072   5.776435   5.397788   4.033486   3.465584
    31  H    3.412869   4.688340   4.231007   2.781317   2.878890
    32  H    2.013662   4.126862   4.052788   2.993229   2.727641
    33  H    4.858399   6.458214   5.838678   4.684494   3.409619
    34  H    3.565341   5.062045   4.676912   3.884741   2.641653
    35  H    5.072945   5.845524   5.001252   4.131565   2.615169
    36  H    5.628949   6.670626   5.737994   4.259531   3.445251
    37  H    5.918628   6.218698   5.014713   3.769378   2.729289
    38  H    5.322639   5.606201   4.497240   3.014713   2.695449
                   16         17         18         19         20
    16  N    0.000000
    17  C    1.508929   0.000000
    18  C    1.496020   2.466861   0.000000
    19  C    1.512864   2.438710   2.450015   0.000000
    20  O    3.306435   3.103454   4.782858   3.422854   0.000000
    21  H    5.147618   5.321402   6.466150   5.321182   2.515662
    22  H    5.763401   6.503297   6.779519   5.815479   4.290335
    23  H    4.881791   5.819080   5.888562   4.558400   3.905655
    24  H    4.064215   4.712316   4.906307   4.742426   3.484047
    25  H    4.710045   5.753737   5.289973   5.097619   4.700196
    26  H    3.032625   4.399277   3.239323   3.430133   4.549894
    27  H    2.757680   3.986490   3.611835   2.501584   3.390381
    28  H    2.102357   2.396777   3.347674   2.919861   1.919980
    29  H    2.113682   2.796778   2.503968   3.423877   3.704800
    30  H    2.109982   2.565400   2.706643   1.092545   4.085233
    31  H    2.128971   3.382478   2.597011   1.090279   4.178999
    32  H    2.159003   2.753956   3.411384   1.100759   2.641503
    33  H    2.128913   1.092361   2.667076   2.670860   3.948032
    34  H    2.100710   1.095499   3.389627   2.608829   2.177488
    35  H    2.124993   1.092186   2.714809   3.389477   3.563652
    36  H    2.123185   2.735205   1.092099   2.620949   5.349391
    37  H    2.122244   2.660388   1.091651   3.398925   5.129716
    38  H    2.118192   3.408468   1.091382   2.724355   5.238309
                   21         22         23         24         25
    21  H    0.000000
    22  H    2.434278   0.000000
    23  H    3.056084   1.763538   0.000000
    24  H    2.758288   2.573028   3.072488   0.000000
    25  H    3.827909   2.344030   2.551738   1.748131   0.000000
    26  H    4.919146   4.162330   3.408543   2.835136   2.291191
    27  H    3.990369   3.593067   2.328655   2.984965   2.782815
    28  H    3.221941   4.195520   3.848825   2.381085   3.607180
    29  H    4.660416   5.014407   4.727445   2.680693   3.540855
    30  H    6.217181   6.870597   5.584981   5.771793   6.181688
    31  H    5.710085   5.744696   4.335015   4.854952   4.826021
    32  H    4.531871   5.218452   3.961037   4.492042   4.949716
    33  H    6.298098   7.480734   6.654187   5.772324   6.713986
    34  H    4.568577   6.034728   5.406490   4.520212   5.687929
    35  H    5.525012   6.741466   6.304187   4.646477   5.840952
    36  H    7.266035   7.682468   6.656376   5.926785   6.296684
    37  H    6.709270   7.108195   6.456995   4.944112   5.496840
    38  H    6.616072   6.529210   5.563428   4.819604   4.837572
                   26         27         28         29         30
    26  H    0.000000
    27  H    1.767107   0.000000
    28  H    3.053761   2.589974   0.000000
    29  H    2.443195   3.067200   1.790750   0.000000
    30  H    4.420953   3.578602   3.772833   4.208292   0.000000
    31  H    2.974010   2.188122   3.485772   3.690121   1.780629
    32  H    3.732549   2.353672   2.719051   3.760203   1.809966
    33  H    5.157219   4.715670   3.459157   3.728611   2.326330
    34  H    4.678834   3.916630   2.153880   3.223772   2.843046
    35  H    4.625729   4.548043   2.554507   2.537394   3.585972
    36  H    4.185355   4.348682   4.176597   3.550225   2.421281
    37  H    3.640732   4.298729   3.520191   2.295814   3.652949
    38  H    2.607390   3.287560   3.718854   2.721357   3.163780
                   31         32         33         34         35
    31  H    0.000000
    32  H    1.795972   0.000000
    33  H    3.613115   3.145182   0.000000
    34  H    3.639367   2.458239   1.816501   0.000000
    35  H    4.217846   3.725894   1.790471   1.798688   0.000000
    36  H    2.812697   3.673912   2.477419   3.696490   3.134520
    37  H    3.637397   4.250407   2.943529   3.663366   2.448266
    38  H    2.417481   3.677397   3.685317   4.200847   3.678608
                   36         37         38
    36  H    0.000000
    37  H    1.786898   0.000000
    38  H    1.786296   1.786740   0.000000
 Stoichiometry    C11H22N2O3
 Framework group  C1[X(C11H22N2O3)]
 Deg. of freedom   108
 Full point group                 C1      NOp   1
 Largest Abelian subgroup         C1      NOp   1
 Largest concise Abelian subgroup C1      NOp   1
                         Standard orientation:                         
 ---------------------------------------------------------------------
 Center     Atomic      Atomic             Coordinates (Angstroms)
 Number     Number       Type             X           Y           Z
 ---------------------------------------------------------------------
      1          6           0        5.120796   -0.807404   -0.585549
      2          1           0        4.777001   -1.545043   -1.317751
      3          1           0        5.735940   -1.315024    0.164653
      4          1           0        5.759643   -0.074256   -1.087742
      5          6           0        3.988756   -0.071681    0.124191
      6          8           0        4.215749    0.820356    0.940209
      7          7           0        2.735796   -0.483844   -0.198065
      8          1           0        2.571964   -1.170898   -0.923793
      9          6           0        1.519044    0.085580    0.373318
     10          6           0        0.395590   -0.971511    0.199858
     11          8           0        0.265814   -1.436636   -0.965062
     12          6           0        1.204911    1.424235   -0.348021
     13          6           0       -0.096034    2.174092    0.012989
     14          6           0       -1.394557    1.560355   -0.595408
     15          6           0       -2.201498    0.848790    0.489934
     16          7           0       -3.234350   -0.200849    0.014073
     17          6           0       -3.426624   -1.163350    1.160149
     18          6           0       -4.528093    0.469325   -0.325295
     19          6           0       -2.764577   -1.000310   -1.181307
     20          8           0       -0.324039   -1.218431    1.208699
     21          1           0        1.690303    0.271252    1.436355
     22          1           0        2.053001    2.087356   -0.143495
     23          1           0        1.207113    1.223252   -1.427187
     24          1           0       -0.190377    2.261490    1.104466
     25          1           0        0.001679    3.201354   -0.356949
     26          1           0       -1.994401    2.340741   -1.081218
     27          1           0       -1.090523    0.849333   -1.366478
     28          1           0       -1.516522    0.283994    1.124883
     29          1           0       -2.776582    1.556087    1.096329
     30          1           0       -3.476210   -1.817635   -1.319917
     31          1           0       -2.780347   -0.355302   -2.060184
     32          1           0       -1.746608   -1.382911   -1.010937
     33          1           0       -4.202625   -1.882810    0.889129
     34          1           0       -2.456321   -1.643349    1.328169
     35          1           0       -3.732563   -0.595818    2.041726
     36          1           0       -5.235760   -0.278050   -0.690423
     37          1           0       -4.927701    0.951957    0.568619
     38          1           0       -4.346695    1.216093   -1.100244
 ---------------------------------------------------------------------
 Rotational constants (GHZ):           1.1935703           0.2483180           0.2304419
 Leave Link  202 at Sun May 31 21:57:44 2026, MaxMem=    67108864 cpu:               0.1 elap:               0.0
 (Enter /software/local/apps/gaussian-16.0/g16/l301.exe)
 Standard basis: 6-31G(d) (6D, 7F)
 Ernie: Thresh=  0.10000D-02 Tol=  0.10000D-05 Strict=F.
 There are   284 symmetry adapted cartesian basis functions of A   symmetry.
 There are   284 symmetry adapted basis functions of A   symmetry.
   284 basis functions,   536 primitive gaussians,   284 cartesian basis functions
    63 alpha electrons       63 beta electrons
       nuclear repulsion energy      1225.5819032450 Hartrees.
 IExCor=    0 DFT=F Ex=HF Corr=None ExCW=0 ScaHFX=  1.000000
 ScaDFX=  1.000000  1.000000  1.000000  1.000000 ScalE2=  1.000000  1.000000
 IRadAn=      5 IRanWt=     -1 IRanGd=            0 ICorTp=0 IEmpDi=  4
 NAtoms=   38 NActive=   38 NUniq=   38 SFac= 1.00D+00 NAtFMM=   60 NAOKFM=F Big=F
 Integral buffers will be    131072 words long.
 Raffenetti 1 integral format.
 Two-electron integral symmetry is turned on.
 Leave Link  301 at Sun May 31 21:57:44 2026, MaxMem=    67108864 cpu:               0.8 elap:               0.1
 (Enter /software/local/apps/gaussian-16.0/g16/l302.exe)
 NPDir=0 NMtPBC=     1 NCelOv=     1 NCel=       1 NClECP=     1 NCelD=      1
         NCelK=      1 NCelE2=     1 NClLst=     1 CellRange=     0.0.
 One-electron integrals computed using PRISM.
 One-electron integral symmetry used in STVInt
 NBasis=   284 RedAO= T EigKep=  2.46D-03  NBF=   284
 NBsUse=   284 1.00D-06 EigRej= -1.00D+00 NBFU=   284
 Leave Link  302 at Sun May 31 21:57:44 2026, MaxMem=    67108864 cpu:               2.3 elap:               0.2
 (Enter /software/local/apps/gaussian-16.0/g16/l303.exe)
 DipDrv:  MaxL=1.
 Leave Link  303 at Sun May 31 21:57:44 2026, MaxMem=    67108864 cpu:               0.5 elap:               0.1
 (Enter /software/local/apps/gaussian-16.0/g16/l401.exe)
 ExpMin= 1.61D-01 ExpMax= 5.48D+03 ExpMxC= 8.25D+02 IAcc=3 IRadAn=         5 AccDes= 0.00D+00
 Harris functional with IExCor=  205 and IRadAn=       5 diagonalized for initial guess.
 HarFok:  IExCor=  205 AccDes= 0.00D+00 IRadAn=         5 IDoV= 1 UseB2=F ITyADJ=14
 ICtDFT=  3500011 ScaDFX=  1.000000  1.000000  1.000000  1.000000
 FoFCou: FMM=F IPFlag=           0 FMFlag=      100000 FMFlg1=           0
         NFxFlg=           0 DoJE=T BraDBF=F KetDBF=T FulRan=T
         wScrn=  0.000000 ICntrl=       500 IOpCl=  0 I1Cent=   200000004 NGrid=           0
         NMat0=    1 NMatS0=      1 NMatT0=    0 NMatD0=    1 NMtDS0=    0 NMtDT0=    0
 Petite list used in FoFCou.
 Harris En= -764.005599067098    
 JPrj=0 DoOrth=F DoCkMO=F.
 Leave Link  401 at Sun May 31 21:57:45 2026, MaxMem=    67108864 cpu:              12.6 elap:               0.8
 (Enter /software/local/apps/gaussian-16.0/g16/l502.exe)
 Integral symmetry usage will be decided dynamically.
 Closed shell SCF:
 Using DIIS extrapolation, IDIIS=  1040.
 NGot=    67108864 LenX=    66938694 LenY=    66857597
 Requested convergence on RMS density matrix=1.00D-08 within 128 cycles.
 Requested convergence on MAX density matrix=1.00D-06.
 Requested convergence on             energy=1.00D-06.
 No special actions if energy rises.
 Fock matrices will be formed incrementally for  20 cycles.
 Integral accuracy reduced to 1.0D-05 until final iterations.

 Cycle   1  Pass 0  IDiag  1:
 FoFJK:  IHMeth= 1 ICntrl=       0 DoSepK=F KAlg= 0 I1Cent=           0 FoldK=F
 IRaf= 830000000 NMat=       1 IRICut=       1 DoRegI=T DoRafI=F ISym2E= 0 IDoP0=0 IntGTp=1.
 FoFCou: FMM=F IPFlag=           0 FMFlag=      100000 FMFlg1=           0
         NFxFlg=           0 DoJE=F BraDBF=F KetDBF=F FulRan=T
         wScrn=  0.000000 ICntrl=         0 IOpCl=  0 I1Cent=           0 NGrid=           0
         NMat0=    1 NMatS0=      1 NMatT0=    0 NMatD0=    1 NMtDS0=    0 NMtDT0=    0
 Symmetry not used in FoFCou.
 E= -762.082324599411    
 DIIS: error= 4.24D-02 at cycle   1 NSaved=   1.
 NSaved= 1 IEnMin= 1 EnMin= -762.082324599411     IErMin= 1 ErrMin= 4.24D-02
 ErrMax= 4.24D-02  0.00D+00 EMaxC= 1.00D-01 BMatC= 1.20D+00 BMatP= 1.20D+00
 IDIUse=3 WtCom= 5.76D-01 WtEn= 4.24D-01
 Coeff-Com:  0.100D+01
 Coeff-En:   0.100D+01
 Coeff:      0.100D+01
 Gap=     0.570 Goal=   None    Shift=    0.000
 GapD=    0.570 DampG=2.000 DampE=0.500 DampFc=1.0000 IDamp=-1.
 RMSDP=3.89D-03 MaxDP=1.06D-01              OVMax= 1.11D-01

 Cycle   2  Pass 0  IDiag  1:
 RMSU=  3.84D-03    CP:  9.70D-01
 E= -762.688729975297     Delta-E=       -0.606405375885 Rises=F Damp=F
 DIIS: error= 1.44D-02 at cycle   2 NSaved=   2.
 NSaved= 2 IEnMin= 2 EnMin= -762.688729975297     IErMin= 2 ErrMin= 1.44D-02
 ErrMax= 1.44D-02  0.00D+00 EMaxC= 1.00D-01 BMatC= 1.61D-01 BMatP= 1.20D+00
 IDIUse=3 WtCom= 8.56D-01 WtEn= 1.44D-01
 Coeff-Com:  0.201D+00 0.799D+00
 Coeff-En:   0.000D+00 0.100D+01
 Coeff:      0.172D+00 0.828D+00
 Gap=     0.519 Goal=   None    Shift=    0.000
 RMSDP=1.49D-03 MaxDP=5.22D-02 DE=-6.06D-01 OVMax= 4.64D-02

 Cycle   3  Pass 0  IDiag  1:
 RMSU=  1.16D-03    CP:  9.77D-01  7.57D-01
 E= -762.799004861752     Delta-E=       -0.110274886456 Rises=F Damp=F
 DIIS: error= 5.31D-03 at cycle   3 NSaved=   3.
 NSaved= 3 IEnMin= 3 EnMin= -762.799004861752     IErMin= 3 ErrMin= 5.31D-03
 ErrMax= 5.31D-03  0.00D+00 EMaxC= 1.00D-01 BMatC= 1.64D-02 BMatP= 1.61D-01
 IDIUse=3 WtCom= 9.47D-01 WtEn= 5.31D-02
 Coeff-Com: -0.186D-01 0.207D+00 0.812D+00
 Coeff-En:   0.000D+00 0.000D+00 0.100D+01
 Coeff:     -0.176D-01 0.196D+00 0.822D+00
 Gap=     0.505 Goal=   None    Shift=    0.000
 RMSDP=4.00D-04 MaxDP=1.95D-02 DE=-1.10D-01 OVMax= 2.18D-02

 Cycle   4  Pass 0  IDiag  1:
 RMSU=  2.92D-04    CP:  9.76D-01  8.22D-01  9.02D-01
 E= -762.811100556821     Delta-E=       -0.012095695069 Rises=F Damp=F
 DIIS: error= 2.24D-03 at cycle   4 NSaved=   4.
 NSaved= 4 IEnMin= 4 EnMin= -762.811100556821     IErMin= 4 ErrMin= 2.24D-03
 ErrMax= 2.24D-03  0.00D+00 EMaxC= 1.00D-01 BMatC= 1.08D-03 BMatP= 1.64D-02
 IDIUse=3 WtCom= 9.78D-01 WtEn= 2.24D-02
 Coeff-Com: -0.110D-01 0.345D-01 0.268D+00 0.708D+00
 Coeff-En:   0.000D+00 0.000D+00 0.000D+00 0.100D+01
 Coeff:     -0.108D-01 0.337D-01 0.262D+00 0.715D+00
 Gap=     0.500 Goal=   None    Shift=    0.000
 RMSDP=1.15D-04 MaxDP=5.18D-03 DE=-1.21D-02 OVMax= 5.84D-03

 Cycle   5  Pass 0  IDiag  1:
 RMSU=  7.85D-05    CP:  9.76D-01  8.22D-01  9.58D-01  8.20D-01
 E= -762.812050787196     Delta-E=       -0.000950230374 Rises=F Damp=F
 DIIS: error= 4.25D-04 at cycle   5 NSaved=   5.
 NSaved= 5 IEnMin= 5 EnMin= -762.812050787196     IErMin= 5 ErrMin= 4.25D-04
 ErrMax= 4.25D-04  0.00D+00 EMaxC= 1.00D-01 BMatC= 4.28D-05 BMatP= 1.08D-03
 IDIUse=3 WtCom= 9.96D-01 WtEn= 4.25D-03
 Coeff-Com:  0.143D-02-0.159D-01-0.659D-01 0.160D-02 0.108D+01
 Coeff-En:   0.000D+00 0.000D+00 0.000D+00 0.000D+00 0.100D+01
 Coeff:      0.143D-02-0.158D-01-0.656D-01 0.160D-02 0.108D+01
 Gap=     0.501 Goal=   None    Shift=    0.000
 RMSDP=4.66D-05 MaxDP=1.50D-03 DE=-9.50D-04 OVMax= 4.05D-03

 Cycle   6  Pass 0  IDiag  1:
 RMSU=  2.55D-05    CP:  9.76D-01  8.23D-01  9.78D-01  9.12D-01  1.21D+00
 E= -762.812134391646     Delta-E=       -0.000083604451 Rises=F Damp=F
 DIIS: error= 2.06D-04 at cycle   6 NSaved=   6.
 NSaved= 6 IEnMin= 6 EnMin= -762.812134391646     IErMin= 6 ErrMin= 2.06D-04
 ErrMax= 2.06D-04  0.00D+00 EMaxC= 1.00D-01 BMatC= 8.25D-06 BMatP= 4.28D-05
 IDIUse=3 WtCom= 9.98D-01 WtEn= 2.06D-03
 Coeff-Com:  0.149D-02-0.820D-02-0.459D-01-0.764D-01 0.309D+00 0.820D+00
 Coeff-En:   0.000D+00 0.000D+00 0.000D+00 0.000D+00 0.000D+00 0.100D+01
 Coeff:      0.149D-02-0.818D-02-0.458D-01-0.762D-01 0.308D+00 0.821D+00
 Gap=     0.501 Goal=   None    Shift=    0.000
 RMSDP=1.72D-05 MaxDP=7.32D-04 DE=-8.36D-05 OVMax= 9.38D-04

 Cycle   7  Pass 0  IDiag  1:
 RMSU=  8.73D-06    CP:  9.76D-01  8.23D-01  9.83D-01  9.29D-01  1.37D+00
                    CP:  1.07D+00
 E= -762.812146757158     Delta-E=       -0.000012365511 Rises=F Damp=F
 DIIS: error= 5.87D-05 at cycle   7 NSaved=   7.
 NSaved= 7 IEnMin= 7 EnMin= -762.812146757158     IErMin= 7 ErrMin= 5.87D-05
 ErrMax= 5.87D-05  0.00D+00 EMaxC= 1.00D-01 BMatC= 7.27D-07 BMatP= 8.25D-06
 IDIUse=1 WtCom= 1.00D+00 WtEn= 0.00D+00
 Coeff-Com: -0.963D-04 0.156D-02 0.657D-02-0.707D-02-0.101D+00-0.403D-01
 Coeff-Com:  0.114D+01
 Coeff:     -0.963D-04 0.156D-02 0.657D-02-0.707D-02-0.101D+00-0.403D-01
 Coeff:      0.114D+01
 Gap=     0.501 Goal=   None    Shift=    0.000
 RMSDP=8.09D-06 MaxDP=2.43D-04 DE=-1.24D-05 OVMax= 7.64D-04

 Initial convergence to 1.0D-05 achieved.  Increase integral accuracy.
 Cycle   8  Pass 1  IDiag  1:
 E= -762.812153836337     Delta-E=       -0.000007079180 Rises=F Damp=F
 DIIS: error= 3.70D-05 at cycle   1 NSaved=   1.
 NSaved= 1 IEnMin= 1 EnMin= -762.812153836337     IErMin= 1 ErrMin= 3.70D-05
 ErrMax= 3.70D-05  0.00D+00 EMaxC= 1.00D-01 BMatC= 2.70D-07 BMatP= 2.70D-07
 IDIUse=1 WtCom= 1.00D+00 WtEn= 0.00D+00
 Coeff-Com:  0.100D+01
 Coeff:      0.100D+01
 Gap=     0.501 Goal=   None    Shift=    0.000
 RMSDP=8.09D-06 MaxDP=2.43D-04 DE=-7.08D-06 OVMax= 1.82D-04

 Cycle   9  Pass 1  IDiag  1:
 RMSU=  5.34D-06    CP:  1.00D+00
 E= -762.812154195594     Delta-E=       -0.000000359257 Rises=F Damp=F
 DIIS: error= 1.78D-05 at cycle   2 NSaved=   2.
 NSaved= 2 IEnMin= 2 EnMin= -762.812154195594     IErMin= 2 ErrMin= 1.78D-05
 ErrMax= 1.78D-05  0.00D+00 EMaxC= 1.00D-01 BMatC= 5.43D-08 BMatP= 2.70D-07
 IDIUse=1 WtCom= 1.00D+00 WtEn= 0.00D+00
 Coeff-Com:  0.166D+00 0.834D+00
 Coeff:      0.166D+00 0.834D+00
 Gap=     0.501 Goal=   None    Shift=    0.000
 RMSDP=1.20D-06 MaxDP=4.79D-05 DE=-3.59D-07 OVMax= 1.16D-04

 Cycle  10  Pass 1  IDiag  1:
 RMSU=  1.12D-06    CP:  1.00D+00  1.08D+00
 E= -762.812154288224     Delta-E=       -0.000000092630 Rises=F Damp=F
 DIIS: error= 1.33D-05 at cycle   3 NSaved=   3.
 NSaved= 3 IEnMin= 3 EnMin= -762.812154288224     IErMin= 3 ErrMin= 1.33D-05
 ErrMax= 1.33D-05  0.00D+00 EMaxC= 1.00D-01 BMatC= 2.11D-08 BMatP= 5.43D-08
 IDIUse=1 WtCom= 1.00D+00 WtEn= 0.00D+00
 Coeff-Com: -0.164D+00 0.213D+00 0.952D+00
 Coeff:     -0.164D+00 0.213D+00 0.952D+00
 Gap=     0.501 Goal=   None    Shift=    0.000
 RMSDP=1.02D-06 MaxDP=4.28D-05 DE=-9.26D-08 OVMax= 8.04D-05

 Cycle  11  Pass 1  IDiag  1:
 RMSU=  7.37D-07    CP:  1.00D+00  1.19D+00  1.37D+00
 E= -762.812154332760     Delta-E=       -0.000000044535 Rises=F Damp=F
 DIIS: error= 4.37D-06 at cycle   4 NSaved=   4.
 NSaved= 4 IEnMin= 4 EnMin= -762.812154332760     IErMin= 4 ErrMin= 4.37D-06
 ErrMax= 4.37D-06  0.00D+00 EMaxC= 1.00D-01 BMatC= 2.39D-09 BMatP= 2.11D-08
 IDIUse=1 WtCom= 1.00D+00 WtEn= 0.00D+00
 Coeff-Com: -0.104D-01-0.186D+00-0.257D+00 0.145D+01
 Coeff:     -0.104D-01-0.186D+00-0.257D+00 0.145D+01
 Gap=     0.501 Goal=   None    Shift=    0.000
 RMSDP=7.13D-07 MaxDP=2.76D-05 DE=-4.45D-08 OVMax= 7.29D-05

 Cycle  12  Pass 1  IDiag  1:
 RMSU=  1.65D-07    CP:  1.00D+00  1.24D+00  1.77D+00  1.61D+00
 E= -762.812154343857     Delta-E=       -0.000000011097 Rises=F Damp=F
 DIIS: error= 9.08D-07 at cycle   5 NSaved=   5.
 NSaved= 5 IEnMin= 5 EnMin= -762.812154343857     IErMin= 5 ErrMin= 9.08D-07
 ErrMax= 9.08D-07  0.00D+00 EMaxC= 1.00D-01 BMatC= 3.04D-10 BMatP= 2.39D-09
 IDIUse=1 WtCom= 1.00D+00 WtEn= 0.00D+00
 Coeff-Com:  0.102D-01-0.804D-01-0.181D+00 0.505D+00 0.747D+00
 Coeff:      0.102D-01-0.804D-01-0.181D+00 0.505D+00 0.747D+00
 Gap=     0.501 Goal=   None    Shift=    0.000
 RMSDP=1.22D-07 MaxDP=4.97D-06 DE=-1.11D-08 OVMax= 8.67D-06

 Cycle  13  Pass 1  IDiag  1:
 RMSU=  4.63D-08    CP:  1.00D+00  1.25D+00  1.82D+00  1.72D+00  8.93D-01
 E= -762.812154344302     Delta-E=       -0.000000000446 Rises=F Damp=F
 DIIS: error= 1.87D-07 at cycle   6 NSaved=   6.
 NSaved= 6 IEnMin= 6 EnMin= -762.812154344302     IErMin= 6 ErrMin= 1.87D-07
 ErrMax= 1.87D-07  0.00D+00 EMaxC= 1.00D-01 BMatC= 1.34D-11 BMatP= 3.04D-10
 IDIUse=1 WtCom= 1.00D+00 WtEn= 0.00D+00
 Coeff-Com:  0.287D-03 0.171D-01 0.221D-01-0.116D+00-0.442D-01 0.112D+01
 Coeff:      0.287D-03 0.171D-01 0.221D-01-0.116D+00-0.442D-01 0.112D+01
 Gap=     0.501 Goal=   None    Shift=    0.000
 RMSDP=2.74D-08 MaxDP=1.33D-06 DE=-4.46D-10 OVMax= 1.60D-06

 Cycle  14  Pass 1  IDiag  1:
 RMSU=  1.57D-08    CP:  1.00D+00  1.25D+00  1.83D+00  1.74D+00  9.62D-01
                    CP:  1.33D+00
 E= -762.812154344342     Delta-E=       -0.000000000040 Rises=F Damp=F
 DIIS: error= 8.16D-08 at cycle   7 NSaved=   7.
 NSaved= 7 IEnMin= 7 EnMin= -762.812154344342     IErMin= 7 ErrMin= 8.16D-08
 ErrMax= 8.16D-08  0.00D+00 EMaxC= 1.00D-01 BMatC= 2.95D-12 BMatP= 1.34D-11
 IDIUse=1 WtCom= 1.00D+00 WtEn= 0.00D+00
 Coeff-Com: -0.183D-02 0.192D-01 0.379D-01-0.117D+00-0.149D+00 0.259D+00
 Coeff-Com:  0.952D+00
 Coeff:     -0.183D-02 0.192D-01 0.379D-01-0.117D+00-0.149D+00 0.259D+00
 Coeff:      0.952D+00
 Gap=     0.501 Goal=   None    Shift=    0.000
 RMSDP=1.15D-08 MaxDP=4.73D-07 DE=-3.96D-11 OVMax= 6.64D-07

 Cycle  15  Pass 1  IDiag  1:
 RMSU=  5.71D-09    CP:  1.00D+00  1.25D+00  1.83D+00  1.74D+00  9.88D-01
                    CP:  1.51D+00  1.15D+00
 E= -762.812154344330     Delta-E=        0.000000000012 Rises=F Damp=F
 DIIS: error= 1.93D-08 at cycle   8 NSaved=   8.
 NSaved= 8 IEnMin= 7 EnMin= -762.812154344342     IErMin= 8 ErrMin= 1.93D-08
 ErrMax= 1.93D-08  0.00D+00 EMaxC= 1.00D-01 BMatC= 1.87D-13 BMatP= 2.95D-12
 IDIUse=1 WtCom= 1.00D+00 WtEn= 0.00D+00
 Coeff-Com: -0.480D-04-0.119D-02-0.192D-02 0.843D-02 0.291D-02-0.951D-01
 Coeff-Com: -0.920D-02 0.110D+01
 Coeff:     -0.480D-04-0.119D-02-0.192D-02 0.843D-02 0.291D-02-0.951D-01
 Coeff:     -0.920D-02 0.110D+01
 Gap=     0.501 Goal=   None    Shift=    0.000
 RMSDP=3.56D-09 MaxDP=1.33D-07 DE= 1.18D-11 OVMax= 2.12D-07

 SCF Done:  E(RHF) =  -762.812154344     A.U. after   15 cycles
            NFock= 15  Conv=0.36D-08     -V/T= 2.0024
 KE= 7.610008315592D+02 PE=-4.238004814652D+03 EE= 1.488609925503D+03
 Leave Link  502 at Sun May 31 21:57:54 2026, MaxMem=    67108864 cpu:             148.2 elap:               9.4
 (Enter /software/local/apps/gaussian-16.0/g16/l601.exe)
 Copying SCF densities to generalized density rwf, IOpCl= 0 IROHF=0.
 SCF density gives NOpUse=  1 NOpAll=  1.

 **********************************************************************

            Population analysis using the SCF Density.

 **********************************************************************

 Orbital symmetries:
 BldTbl:  Degeneracy threshold= 1.00D-02
       Occupied  (A) (A) (A) (A) (A) (A) (A) (A) (A) (A) (A) (A)
                 (A) (A) (A) (A) (A) (A) (A) (A) (A) (A) (A) (A)
                 (A) (A) (A) (A) (A) (A) (A) (A) (A) (A) (A) (A)
                 (A) (A) (A) (A) (A) (A) (A) (A) (A) (A) (A) (A)
                 (A) (A) (A) (A) (A) (A) (A) (A) (A) (A) (A) (A)
                 (A) (A) (A)
       Virtual   (A) (A) (A) (A) (A) (A) (A) (A) (A) (A) (A) (A)
                 (A) (A) (A) (A) (A) (A) (A) (A) (A) (A) (A) (A)
                 (A) (A) (A) (A) (A) (A) (A) (A) (A) (A) (A) (A)
                 (A) (A) (A) (A) (A) (A) (A) (A) (A) (A) (A) (A)
                 (A) (A) (A) (A) (A) (A) (A) (A) (A) (A) (A) (A)
                 (A) (A) (A) (A) (A) (A) (A) (A) (A) (A) (A) (A)
                 (A) (A) (A) (A) (A) (A) (A) (A) (A) (A) (A) (A)
                 (A) (A) (A) (A) (A) (A) (A) (A) (A) (A) (A) (A)
                 (A) (A) (A) (A) (A) (A) (A) (A) (A) (A) (A) (A)
                 (A) (A) (A) (A) (A) (A) (A) (A) (A) (A) (A) (A)
                 (A) (A) (A) (A) (A) (A) (A) (A) (A) (A) (A) (A)
                 (A) (A) (A) (A) (A) (A) (A) (A) (A) (A) (A) (A)
                 (A) (A) (A) (A) (A) (A) (A) (A) (A) (A) (A) (A)
                 (A) (A) (A) (A) (A) (A) (A) (A) (A) (A) (A) (A)
                 (A) (A) (A) (A) (A) (A) (A) (A) (A) (A) (A) (A)
                 (A) (A) (A) (A) (A) (A) (A) (A) (A) (A) (A) (A)
                 (A) (A) (A) (A) (A) (A) (A) (A) (A) (A) (A) (A)
                 (A) (A) (A) (A) (A) (A) (A) (A) (A) (A) (A) (A)
                 (A) (A) (A) (A) (A)
 The electronic state is 1-A.
 Alpha  occ. eigenvalues --  -20.48685 -20.46208 -20.46164 -15.72014 -15.55169
 Alpha  occ. eigenvalues --  -11.32519 -11.32243 -11.30002 -11.29950 -11.29235
 Alpha  occ. eigenvalues --  -11.28949 -11.24524 -11.23171 -11.23027 -11.21330
 Alpha  occ. eigenvalues --  -11.20639  -1.34872  -1.33924  -1.33087  -1.23036
 Alpha  occ. eigenvalues --   -1.19165  -1.09034  -1.03191  -1.02093  -1.01238
 Alpha  occ. eigenvalues --   -0.97972  -0.93691  -0.88546  -0.84312  -0.79475
 Alpha  occ. eigenvalues --   -0.75139  -0.72227  -0.71946  -0.70235  -0.69994
 Alpha  occ. eigenvalues --   -0.65800  -0.63778  -0.63182  -0.61932  -0.61686
 Alpha  occ. eigenvalues --   -0.59905  -0.59129  -0.58443  -0.57672  -0.57518
 Alpha  occ. eigenvalues --   -0.56931  -0.55948  -0.55848  -0.54838  -0.53922
 Alpha  occ. eigenvalues --   -0.53551  -0.53413  -0.51091  -0.49359  -0.48990
 Alpha  occ. eigenvalues --   -0.46706  -0.46184  -0.44905  -0.38830  -0.37242
 Alpha  occ. eigenvalues --   -0.36607  -0.35288  -0.33500
 Alpha virt. eigenvalues --    0.16620   0.21440   0.21925   0.22334   0.22814
 Alpha virt. eigenvalues --    0.24220   0.25010   0.25924   0.25970   0.27115
 Alpha virt. eigenvalues --    0.27823   0.28290   0.29101   0.30152   0.30289
 Alpha virt. eigenvalues --    0.31301   0.31541   0.32716   0.33508   0.34560
 Alpha virt. eigenvalues --    0.34882   0.35547   0.35573   0.36026   0.36675
 Alpha virt. eigenvalues --    0.37897   0.38653   0.41394   0.42713   0.43571
 Alpha virt. eigenvalues --    0.45159   0.45916   0.46937   0.49232   0.50382
 Alpha virt. eigenvalues --    0.54725   0.61187   0.63555   0.65890   0.66724
 Alpha virt. eigenvalues --    0.67074   0.68790   0.69338   0.71522   0.74817
 Alpha virt. eigenvalues --    0.76068   0.77383   0.77828   0.79555   0.80079
 Alpha virt. eigenvalues --    0.83019   0.83689   0.84889   0.85443   0.87353
 Alpha virt. eigenvalues --    0.88114   0.89727   0.90502   0.92204   0.93787
 Alpha virt. eigenvalues --    0.95573   0.96618   0.97565   0.98195   0.99907
 Alpha virt. eigenvalues --    1.01316   1.02209   1.03100   1.04317   1.04939
 Alpha virt. eigenvalues --    1.06519   1.06863   1.08980   1.09495   1.10695
 Alpha virt. eigenvalues --    1.11612   1.11727   1.12490   1.13103   1.14047
 Alpha virt. eigenvalues --    1.14724   1.15213   1.16447   1.17674   1.17826
 Alpha virt. eigenvalues --    1.18303   1.18588   1.19175   1.20317   1.20967
 Alpha virt. eigenvalues --    1.21366   1.22100   1.22524   1.22722   1.24107
 Alpha virt. eigenvalues --    1.24962   1.26792   1.27799   1.29276   1.29879
 Alpha virt. eigenvalues --    1.30915   1.34497   1.37752   1.39174   1.39773
 Alpha virt. eigenvalues --    1.43305   1.44491   1.46699   1.49044   1.50938
 Alpha virt. eigenvalues --    1.55085   1.57051   1.58137   1.60748   1.61465
 Alpha virt. eigenvalues --    1.65207   1.66432   1.68771   1.70088   1.72764
 Alpha virt. eigenvalues --    1.76495   1.77223   1.79489   1.79993   1.84064
 Alpha virt. eigenvalues --    1.87114   1.91860   1.92744   1.95473   1.96575
 Alpha virt. eigenvalues --    1.98797   1.99656   2.02203   2.03875   2.05804
 Alpha virt. eigenvalues --    2.09986   2.11389   2.12486   2.12674   2.15371
 Alpha virt. eigenvalues --    2.16451   2.17911   2.18233   2.19052   2.20158
 Alpha virt. eigenvalues --    2.20322   2.21503   2.21867   2.24272   2.25654
 Alpha virt. eigenvalues --    2.26778   2.27879   2.29812   2.30272   2.33340
 Alpha virt. eigenvalues --    2.34648   2.36048   2.36748   2.37957   2.38590
 Alpha virt. eigenvalues --    2.38786   2.44577   2.44793   2.46126   2.46686
 Alpha virt. eigenvalues --    2.51354   2.52461   2.53211   2.54727   2.55361
 Alpha virt. eigenvalues --    2.56022   2.57053   2.57383   2.58578   2.62234
 Alpha virt. eigenvalues --    2.64636   2.66437   2.70285   2.71414   2.73055
 Alpha virt. eigenvalues --    2.75591   2.78733   2.80882   2.82202   2.84280
 Alpha virt. eigenvalues --    2.85423   2.89158   2.91497   2.95706   3.00609
 Alpha virt. eigenvalues --    3.02534   3.04419   3.07057   3.08582   3.11219
 Alpha virt. eigenvalues --    3.12690   3.14076   3.15705   3.23460   3.32607
 Alpha virt. eigenvalues --    3.37909   3.38896   3.44281   3.55302   3.59293
 Alpha virt. eigenvalues --    4.42321   4.47087   4.49390   4.50712   4.60408
 Alpha virt. eigenvalues --    4.63856   4.65919   4.69704   4.73938   4.76363
 Alpha virt. eigenvalues --    4.80767   4.85274   4.94663   4.97982   5.07074
 Alpha virt. eigenvalues --    5.14181
          Condensed to atoms (all electrons):
               1          2          3          4          5          6
     1  C    5.246355   0.374321   0.379903   0.379622   0.361775  -0.070702
     2  H    0.374321   0.532599  -0.023079  -0.023753  -0.038511   0.002504
     3  H    0.379903  -0.023079   0.490391  -0.021445  -0.027150   0.000820
     4  H    0.379622  -0.023753  -0.021445   0.496695  -0.028556   0.001145
     5  C    0.361775  -0.038511  -0.027150  -0.028556   4.145387   0.574696
     6  O   -0.070702   0.002504   0.000820   0.001145   0.574696   8.222332
     7  N   -0.104227   0.006439   0.001171   0.001758   0.281445  -0.096501
     8  H   -0.000805   0.001153   0.000037   0.000007  -0.012556   0.001818
     9  C    0.004955   0.000065  -0.000110  -0.000087  -0.028502   0.008630
    10  C   -0.000032  -0.000029   0.000001   0.000000   0.002949   0.000295
    11  O   -0.000021  -0.000018  -0.000000   0.000000   0.000187  -0.000002
    12  C   -0.000392   0.000013  -0.000004   0.000030  -0.003763  -0.004381
    13  C    0.000003   0.000000   0.000000  -0.000000   0.000047   0.000012
    14  C   -0.000000   0.000000   0.000000   0.000000  -0.000001  -0.000001
    15  C   -0.000000  -0.000000   0.000000   0.000000  -0.000000   0.000000
    16  N   -0.000000   0.000000   0.000000  -0.000000   0.000000  -0.000000
    17  C    0.000000  -0.000000  -0.000000   0.000000  -0.000000   0.000000
    18  C   -0.000000  -0.000000  -0.000000  -0.000000   0.000000   0.000000
    19  C   -0.000000  -0.000000  -0.000000   0.000000   0.000000  -0.000000
    20  O    0.000000   0.000000  -0.000000  -0.000000  -0.000105  -0.000000
    21  H    0.000160  -0.000010   0.000012  -0.000008  -0.000427   0.004421
    22  H    0.000158  -0.000014   0.000001  -0.000004   0.002643   0.006032
    23  H   -0.000021   0.000000   0.000001  -0.000004   0.000627  -0.000036
    24  H   -0.000000   0.000000   0.000000  -0.000000   0.000005  -0.000001
    25  H   -0.000000   0.000000  -0.000000   0.000000  -0.000005   0.000001
    26  H   -0.000000   0.000000   0.000000  -0.000000  -0.000000   0.000000
    27  H   -0.000000   0.000000  -0.000000   0.000000  -0.000002   0.000000
    28  H   -0.000000   0.000000  -0.000000  -0.000000  -0.000000  -0.000000
    29  H   -0.000000   0.000000  -0.000000   0.000000   0.000000  -0.000000
    30  H    0.000000   0.000000  -0.000000   0.000000  -0.000000   0.000000
    31  H   -0.000000   0.000000   0.000000  -0.000000   0.000000  -0.000000
    32  H    0.000000  -0.000000   0.000000  -0.000000   0.000000   0.000000
    33  H   -0.000000  -0.000000   0.000000  -0.000000   0.000000  -0.000000
    34  H   -0.000000   0.000000   0.000000  -0.000000   0.000000  -0.000000
    35  H   -0.000000  -0.000000   0.000000  -0.000000   0.000000  -0.000000
    36  H    0.000000  -0.000000   0.000000  -0.000000   0.000000  -0.000000
    37  H    0.000000   0.000000   0.000000  -0.000000  -0.000000   0.000000
    38  H    0.000000   0.000000   0.000000  -0.000000   0.000000   0.000000
               7          8          9         10         11         12
     1  C   -0.104227  -0.000805   0.004955  -0.000032  -0.000021  -0.000392
     2  H    0.006439   0.001153   0.000065  -0.000029  -0.000018   0.000013
     3  H    0.001171   0.000037  -0.000110   0.000001  -0.000000  -0.000004
     4  H    0.001758   0.000007  -0.000087   0.000000   0.000000   0.000030
     5  C    0.281445  -0.012556  -0.028502   0.002949   0.000187  -0.003763
     6  O   -0.096501   0.001818   0.008630   0.000295  -0.000002  -0.004381
     7  N    7.417504   0.305172   0.157938  -0.033841  -0.003643  -0.064388
     8  H    0.305172   0.301998  -0.029613  -0.005176   0.022085   0.002142
     9  C    0.157938  -0.029613   5.113800   0.353743  -0.117462   0.336305
    10  C   -0.033841  -0.005176   0.353743   4.129891   0.425062  -0.040982
    11  O   -0.003643   0.022085  -0.117462   0.425062   8.477957   0.004784
    12  C   -0.064388   0.002142   0.336305  -0.040982   0.004784   5.143093
    13  C    0.004119  -0.000058  -0.041232  -0.001364  -0.000881   0.320708
    14  C   -0.000091   0.000004   0.000993  -0.003414  -0.002200  -0.044507
    15  C   -0.000016   0.000001  -0.000179  -0.003156  -0.000530   0.001492
    16  N   -0.000000  -0.000000   0.000030   0.000136   0.000358  -0.000119
    17  C    0.000000   0.000000  -0.000092   0.000131   0.000027   0.000009
    18  C    0.000000   0.000000  -0.000001  -0.000011  -0.000009   0.000001
    19  C    0.000003   0.000011  -0.000607  -0.001749  -0.023459   0.000069
    20  O    0.001834   0.000471  -0.088583   0.446711  -0.081918  -0.000093
    21  H   -0.039149   0.002647   0.401866  -0.037317   0.002932  -0.038742
    22  H   -0.006452  -0.000208  -0.031697   0.002950  -0.000027   0.399012
    23  H   -0.000153   0.000982  -0.040871  -0.003236   0.004378   0.389043
    24  H   -0.000042  -0.000001  -0.002573  -0.000351   0.000020  -0.035675
    25  H   -0.000081   0.000003   0.003359  -0.000027  -0.000010  -0.038047
    26  H    0.000001  -0.000000  -0.000145   0.000151   0.000072   0.002659
    27  H   -0.000102   0.000003  -0.000179  -0.000682   0.009328  -0.003419
    28  H    0.000074   0.000003  -0.000737  -0.003863   0.000047  -0.000550
    29  H    0.000000   0.000000   0.000027   0.000252  -0.000016  -0.000043
    30  H   -0.000000  -0.000000   0.000001   0.000026   0.000332  -0.000001
    31  H    0.000000  -0.000000   0.000008   0.000060  -0.000338   0.000001
    32  H   -0.000014  -0.000048   0.001874   0.001026   0.038627  -0.000126
    33  H   -0.000000  -0.000000   0.000000  -0.000001  -0.000000  -0.000000
    34  H   -0.000003  -0.000001   0.000366  -0.000819  -0.000198  -0.000017
    35  H   -0.000000   0.000000   0.000001   0.000011  -0.000001  -0.000000
    36  H    0.000000  -0.000000   0.000000   0.000001   0.000000  -0.000000
    37  H   -0.000000  -0.000000   0.000000   0.000000   0.000000  -0.000000
    38  H    0.000000  -0.000000  -0.000000   0.000000   0.000000   0.000001
              13         14         15         16         17         18
     1  C    0.000003  -0.000000  -0.000000  -0.000000   0.000000  -0.000000
     2  H    0.000000   0.000000  -0.000000   0.000000  -0.000000  -0.000000
     3  H    0.000000   0.000000   0.000000   0.000000  -0.000000  -0.000000
     4  H   -0.000000   0.000000   0.000000  -0.000000   0.000000  -0.000000
     5  C    0.000047  -0.000001  -0.000000   0.000000  -0.000000   0.000000
     6  O    0.000012  -0.000001   0.000000  -0.000000   0.000000   0.000000
     7  N    0.004119  -0.000091  -0.000016  -0.000000   0.000000   0.000000
     8  H   -0.000058   0.000004   0.000001  -0.000000   0.000000   0.000000
     9  C   -0.041232   0.000993  -0.000179   0.000030  -0.000092  -0.000001
    10  C   -0.001364  -0.003414  -0.003156   0.000136   0.000131  -0.000011
    11  O   -0.000881  -0.002200  -0.000530   0.000358   0.000027  -0.000009
    12  C    0.320708  -0.044507   0.001492  -0.000119   0.000009   0.000001
    13  C    5.136696   0.299543  -0.038086   0.002877  -0.000085  -0.000067
    14  C    0.299543   5.209337   0.314482  -0.034901   0.002895  -0.000813
    15  C   -0.038086   0.314482   5.270558   0.135018  -0.050876  -0.046007
    16  N    0.002877  -0.034901   0.135018   7.263580   0.194726   0.205588
    17  C   -0.000085   0.002895  -0.050876   0.194726   5.201374  -0.053909
    18  C   -0.000067  -0.000813  -0.046007   0.205588  -0.053909   5.087559
    19  C   -0.000068  -0.003806  -0.035184   0.161281  -0.053015  -0.055463
    20  O    0.001665  -0.000569  -0.033031   0.001110  -0.016915  -0.000015
    21  H   -0.000126   0.000002  -0.000023  -0.000000   0.000001   0.000000
    22  H   -0.037695   0.003890  -0.000112   0.000001  -0.000000   0.000000
    23  H   -0.040930  -0.006717   0.000407  -0.000001   0.000000  -0.000000
    24  H    0.396871  -0.048796  -0.003126   0.000147  -0.000010  -0.000004
    25  H    0.405621  -0.041252   0.003135  -0.000066   0.000001   0.000002
    26  H   -0.032133   0.396587  -0.043971   0.000744  -0.000085   0.000090
    27  H   -0.038863   0.396300  -0.034837  -0.003384  -0.000142   0.000212
    28  H   -0.002647  -0.031104   0.363800  -0.027612  -0.002321   0.002285
    29  H    0.000099  -0.036594   0.393472  -0.041906  -0.002327  -0.004253
    30  H   -0.000002   0.000290   0.003047  -0.035740  -0.004713  -0.004501
    31  H    0.000061  -0.000487  -0.003128  -0.035352   0.003836  -0.003027
    32  H    0.000055  -0.002341   0.000543  -0.019077  -0.003161   0.001894
    33  H    0.000002  -0.000108   0.004134  -0.036035   0.388279  -0.002575
    34  H   -0.000004   0.000043  -0.003693  -0.025761   0.361435   0.002645
    35  H   -0.000004   0.000078  -0.002779  -0.034961   0.393027  -0.003682
    36  H    0.000002  -0.000147   0.003763  -0.034944  -0.002957   0.395509
    37  H   -0.000004   0.000212  -0.003863  -0.034157  -0.002391   0.395730
    38  H   -0.000027   0.001494  -0.003607  -0.032857   0.003685   0.396464
              19         20         21         22         23         24
     1  C   -0.000000   0.000000   0.000160   0.000158  -0.000021  -0.000000
     2  H   -0.000000   0.000000  -0.000010  -0.000014   0.000000   0.000000
     3  H   -0.000000  -0.000000   0.000012   0.000001   0.000001   0.000000
     4  H    0.000000  -0.000000  -0.000008  -0.000004  -0.000004  -0.000000
     5  C    0.000000  -0.000105  -0.000427   0.002643   0.000627   0.000005
     6  O   -0.000000  -0.000000   0.004421   0.006032  -0.000036  -0.000001
     7  N    0.000003   0.001834  -0.039149  -0.006452  -0.000153  -0.000042
     8  H    0.000011   0.000471   0.002647  -0.000208   0.000982  -0.000001
     9  C   -0.000607  -0.088583   0.401866  -0.031697  -0.040871  -0.002573
    10  C   -0.001749   0.446711  -0.037317   0.002950  -0.003236  -0.000351
    11  O   -0.023459  -0.081918   0.002932  -0.000027   0.004378   0.000020
    12  C    0.000069  -0.000093  -0.038742   0.399012   0.389043  -0.035675
    13  C   -0.000068   0.001665  -0.000126  -0.037695  -0.040930   0.396871
    14  C   -0.003806  -0.000569   0.000002   0.003890  -0.006717  -0.048796
    15  C   -0.035184  -0.033031  -0.000023  -0.000112   0.000407  -0.003126
    16  N    0.161281   0.001110  -0.000000   0.000001  -0.000001   0.000147
    17  C   -0.053015  -0.016915   0.000001  -0.000000   0.000000  -0.000010
    18  C   -0.055463  -0.000015   0.000000   0.000000  -0.000000  -0.000004
    19  C    5.284547  -0.000589   0.000011  -0.000001   0.000021  -0.000003
    20  O   -0.000589   8.457379   0.006765  -0.000083   0.000104   0.000026
    21  H    0.000011   0.006765   0.483377  -0.003679   0.003910   0.001873
    22  H   -0.000001  -0.000083  -0.003679   0.496405  -0.025762  -0.000918
    23  H    0.000021   0.000104   0.003910  -0.025762   0.548220   0.004015
    24  H   -0.000003   0.000026   0.001873  -0.000918   0.004015   0.540571
    25  H    0.000002   0.000004  -0.000118  -0.004624  -0.001663  -0.029204
    26  H   -0.000486  -0.000032   0.000000  -0.000080   0.000112   0.001845
    27  H   -0.002052  -0.000783   0.000042   0.000208   0.002699   0.003003
    28  H   -0.000134   0.038730   0.000318  -0.000039  -0.000018   0.000209
    29  H    0.003167   0.000847  -0.000003   0.000001  -0.000002   0.001015
    30  H    0.389470  -0.000019  -0.000000   0.000000  -0.000000   0.000000
    31  H    0.394357   0.000086  -0.000000  -0.000000  -0.000001  -0.000003
    32  H    0.331813   0.002310  -0.000042   0.000003  -0.000052  -0.000003
    33  H   -0.004655   0.000187  -0.000000   0.000000  -0.000000   0.000000
    34  H   -0.003448   0.028491  -0.000007   0.000000  -0.000000  -0.000002
    35  H    0.003916   0.000137  -0.000000   0.000000   0.000000   0.000002
    36  H   -0.002252   0.000001  -0.000000   0.000000  -0.000000   0.000000
    37  H    0.003790  -0.000001  -0.000000   0.000000  -0.000000   0.000000
    38  H   -0.003056  -0.000000   0.000000  -0.000000   0.000000   0.000002
              25         26         27         28         29         30
     1  C   -0.000000  -0.000000  -0.000000  -0.000000  -0.000000   0.000000
     2  H    0.000000   0.000000   0.000000   0.000000   0.000000   0.000000
     3  H   -0.000000   0.000000  -0.000000  -0.000000  -0.000000  -0.000000
     4  H    0.000000  -0.000000   0.000000  -0.000000   0.000000   0.000000
     5  C   -0.000005  -0.000000  -0.000002  -0.000000   0.000000  -0.000000
     6  O    0.000001   0.000000   0.000000  -0.000000  -0.000000   0.000000
     7  N   -0.000081   0.000001  -0.000102   0.000074   0.000000  -0.000000
     8  H    0.000003  -0.000000   0.000003   0.000003   0.000000  -0.000000
     9  C    0.003359  -0.000145  -0.000179  -0.000737   0.000027   0.000001
    10  C   -0.000027   0.000151  -0.000682  -0.003863   0.000252   0.000026
    11  O   -0.000010   0.000072   0.009328   0.000047  -0.000016   0.000332
    12  C   -0.038047   0.002659  -0.003419  -0.000550  -0.000043  -0.000001
    13  C    0.405621  -0.032133  -0.038863  -0.002647   0.000099  -0.000002
    14  C   -0.041252   0.396587   0.396300  -0.031104  -0.036594   0.000290
    15  C    0.003135  -0.043971  -0.034837   0.363800   0.393472   0.003047
    16  N   -0.000066   0.000744  -0.003384  -0.027612  -0.041906  -0.035740
    17  C    0.000001  -0.000085  -0.000142  -0.002321  -0.002327  -0.004713
    18  C    0.000002   0.000090   0.000212   0.002285  -0.004253  -0.004501
    19  C    0.000002  -0.000486  -0.002052  -0.000134   0.003167   0.389470
    20  O    0.000004  -0.000032  -0.000783   0.038730   0.000847  -0.000019
    21  H   -0.000118   0.000000   0.000042   0.000318  -0.000003  -0.000000
    22  H   -0.004624  -0.000080   0.000208  -0.000039   0.000001   0.000000
    23  H   -0.001663   0.000112   0.002699  -0.000018  -0.000002  -0.000000
    24  H   -0.029204   0.001845   0.003003   0.000209   0.001015   0.000000
    25  H    0.536139  -0.006308   0.001521   0.000152  -0.000008   0.000000
    26  H   -0.006308   0.545009  -0.023932   0.002543  -0.004643  -0.000023
    27  H    0.001521  -0.023932   0.471812  -0.001515   0.002666   0.000450
    28  H    0.000152   0.002543  -0.001515   0.368655  -0.017657  -0.000108
    29  H   -0.000008  -0.004643   0.002666  -0.017657   0.518944  -0.000079
    30  H    0.000000  -0.000023   0.000450  -0.000108  -0.000079   0.499743
    31  H   -0.000000   0.000014  -0.003679   0.000041  -0.000035  -0.028875
    32  H   -0.000002   0.000099  -0.001521  -0.000155  -0.000025  -0.012764
    33  H   -0.000000   0.000003   0.000000   0.000378  -0.000155   0.002152
    34  H   -0.000000  -0.000007   0.000003  -0.002271   0.000193  -0.000304
    35  H    0.000000  -0.000003   0.000005  -0.001571   0.001724   0.000062
    36  H   -0.000000   0.000004  -0.000005  -0.000060   0.000132   0.002361
    37  H   -0.000000   0.000018   0.000001  -0.000061   0.001662  -0.000101
    38  H   -0.000001   0.000792  -0.000070   0.000020  -0.000704   0.000026
              31         32         33         34         35         36
     1  C   -0.000000   0.000000  -0.000000  -0.000000  -0.000000   0.000000
     2  H    0.000000  -0.000000  -0.000000   0.000000  -0.000000  -0.000000
     3  H    0.000000   0.000000   0.000000   0.000000   0.000000   0.000000
     4  H   -0.000000  -0.000000  -0.000000  -0.000000  -0.000000  -0.000000
     5  C    0.000000   0.000000   0.000000   0.000000   0.000000   0.000000
     6  O   -0.000000   0.000000  -0.000000  -0.000000  -0.000000  -0.000000
     7  N    0.000000  -0.000014  -0.000000  -0.000003  -0.000000   0.000000
     8  H   -0.000000  -0.000048  -0.000000  -0.000001   0.000000  -0.000000
     9  C    0.000008   0.001874   0.000000   0.000366   0.000001   0.000000
    10  C    0.000060   0.001026  -0.000001  -0.000819   0.000011   0.000001
    11  O   -0.000338   0.038627  -0.000000  -0.000198  -0.000001   0.000000
    12  C    0.000001  -0.000126  -0.000000  -0.000017  -0.000000  -0.000000
    13  C    0.000061   0.000055   0.000002  -0.000004  -0.000004   0.000002
    14  C   -0.000487  -0.002341  -0.000108   0.000043   0.000078  -0.000147
    15  C   -0.003128   0.000543   0.004134  -0.003693  -0.002779   0.003763
    16  N   -0.035352  -0.019077  -0.036035  -0.025761  -0.034961  -0.034944
    17  C    0.003836  -0.003161   0.388279   0.361435   0.393027  -0.002957
    18  C   -0.003027   0.001894  -0.002575   0.002645  -0.003682   0.395509
    19  C    0.394357   0.331813  -0.004655  -0.003448   0.003916  -0.002252
    20  O    0.000086   0.002310   0.000187   0.028491   0.000137   0.000001
    21  H   -0.000000  -0.000042  -0.000000  -0.000007  -0.000000  -0.000000
    22  H   -0.000000   0.000003   0.000000   0.000000   0.000000   0.000000
    23  H   -0.000001  -0.000052  -0.000000  -0.000000   0.000000  -0.000000
    24  H   -0.000003  -0.000003   0.000000  -0.000002   0.000002   0.000000
    25  H   -0.000000  -0.000002  -0.000000  -0.000000   0.000000  -0.000000
    26  H    0.000014   0.000099   0.000003  -0.000007  -0.000003   0.000004
    27  H   -0.003679  -0.001521   0.000000   0.000003   0.000005  -0.000005
    28  H    0.000041  -0.000155   0.000378  -0.002271  -0.001571  -0.000060
    29  H   -0.000035  -0.000025  -0.000155   0.000193   0.001724   0.000132
    30  H   -0.028875  -0.012764   0.002152  -0.000304   0.000062   0.002361
    31  H    0.490956  -0.012585  -0.000016   0.000067  -0.000119  -0.000506
    32  H   -0.012585   0.318180   0.000175   0.002709  -0.000032   0.000010
    33  H   -0.000016   0.000175   0.495592  -0.014194  -0.026423   0.001980
    34  H    0.000067   0.002709  -0.014194   0.349690  -0.014549  -0.000047
    35  H   -0.000119  -0.000032  -0.026423  -0.014549   0.484499   0.000010
    36  H   -0.000506   0.000010   0.001980  -0.000047   0.000010   0.473073
    37  H    0.000039  -0.000046  -0.000285  -0.000029   0.002193  -0.022612
    38  H    0.001796  -0.000056  -0.000025  -0.000070  -0.000073  -0.022254
              37         38
     1  C    0.000000   0.000000
     2  H    0.000000   0.000000
     3  H    0.000000   0.000000
     4  H   -0.000000  -0.000000
     5  C   -0.000000   0.000000
     6  O    0.000000   0.000000
     7  N   -0.000000   0.000000
     8  H   -0.000000  -0.000000
     9  C    0.000000  -0.000000
    10  C    0.000000   0.000000
    11  O    0.000000   0.000000
    12  C   -0.000000   0.000001
    13  C   -0.000004  -0.000027
    14  C    0.000212   0.001494
    15  C   -0.003863  -0.003607
    16  N   -0.034157  -0.032857
    17  C   -0.002391   0.003685
    18  C    0.395730   0.396464
    19  C    0.003790  -0.003056
    20  O   -0.000001  -0.000000
    21  H   -0.000000   0.000000
    22  H    0.000000  -0.000000
    23  H   -0.000000   0.000000
    24  H    0.000000   0.000002
    25  H   -0.000000  -0.000001
    26  H    0.000018   0.000792
    27  H    0.000001  -0.000070
    28  H   -0.000061   0.000020
    29  H    0.001662  -0.000704
    30  H   -0.000101   0.000026
    31  H    0.000039   0.001796
    32  H   -0.000046  -0.000056
    33  H   -0.000285  -0.000025
    34  H   -0.000029  -0.000070
    35  H    0.002193  -0.000073
    36  H   -0.022612  -0.022254
    37  H    0.471349  -0.021601
    38  H   -0.021601   0.461936
 Mulliken charges:
               1
     1  C   -0.571053
     2  H    0.168319
     3  H    0.199450
     4  H    0.194602
     5  C    0.769817
     6  O   -0.651082
     7  N   -0.828755
     8  H    0.409929
     9  C   -0.001291
    10  C    0.772654
    11  O   -0.755463
    12  C   -0.324113
    13  C   -0.334106
    14  C   -0.368301
    15  C   -0.187648
    16  N   -0.568722
    17  C   -0.356427
    18  C   -0.313641
    19  C   -0.382430
    20  O   -0.764124
    21  H    0.211313
    22  H    0.200093
    23  H    0.164946
    24  H    0.171107
    25  H    0.171476
    26  H    0.161106
    27  H    0.226918
    28  H    0.315166
    29  H    0.184248
    30  H    0.189268
    31  H    0.196827
    32  H    0.352733
    33  H    0.191589
    34  H    0.319782
    35  H    0.198532
    36  H    0.208937
    37  H    0.210154
    38  H    0.218189
 Sum of Mulliken charges =  -0.00000
 Mulliken charges with hydrogens summed into heavy atoms:
               1
     1  C   -0.008681
     5  C    0.769817
     6  O   -0.651082
     7  N   -0.418826
     9  C    0.210022
    10  C    0.772654
    11  O   -0.755463
    12  C    0.040925
    13  C    0.008476
    14  C    0.019723
    15  C    0.311766
    16  N   -0.568722
    17  C    0.353476
    18  C    0.323639
    19  C    0.356399
    20  O   -0.764124
 DipInt: DoE/N= T F RetVal/Mat= T F Init=T NMatP=  1 IDeriv=0 Min/MaxMlt=  0  4
 Entering OneElI...
 OneElI was handed    66899752 working-precision words.
 Multipole integrals L=0 to 4 MinM= 0 MaxM= 0.
 Requested accuracy = 0.1000D-12
 PrtBox:  NBox=     1 Levels=  1 BoxLen=   35.86 SMaxX=       20.78
          Shift=            9.894153            3.557995            3.893183
 Box      1 Number                   0 centers from      1 to    108:
 ShPair: Thresh= 1.00D-13 NBox=     1 BxSize= 3.59D+01 RnKept= 2.09D+01
         NSMCal=                 5886 NSMKep=                4883
 PrmmSu-InSpLW:  IPartL=    0 NPrtUS=    1 NPrtUL=    1 DoSpLW=F IThBeg=    0 IThEnd=    0 NThAct=    1.
 PrSmSu:  IncTry=   512 NBBP=           4883 NTPThr=   100 NPartT=    1 Incr=          48 LDynOK=F GPUOK=F.
 PrsmSu:  NPrtUS=   1 ThrOK=F IAlg=2 LenDen=           0 ISkipM=0 DoSpLW=F IThBeg=    0 IThEnd=    0.
 Prism:   IPart=     0 DynPar=F LinDyn=F Incr=          48.
 PRISM was handed    66506590 working-precision words and  4883 shell-pairs
 IPart=  0 NShTot=        4883 NBatch=          55 AvBLen=        88.8
 PrsmSu-ThDecC:  IPartSL=    0    0 NPrtUSL=    1    1 IThBeg=    0 IThEnd=    0 CPU=   -1 GPU=   -1 NThAct=    1.
 PrSmSu:  NxtVal=             49.
 Electronic moments (au):
       -126.00000000         -4.72245032          0.71624904         -1.08699747
      -3894.34596580       -684.01645909       -368.02212452         -6.86844090
         -7.24620496         -1.05671912      -4649.10680668       -641.28868548
        -36.86261778        330.92627379       1059.05847079        120.11119773
        355.62893998        241.20927726        104.18742772       -528.14657161
    -248943.58275643      -8967.24920731      -2797.85892578       5839.22166856
       1716.76988539       -200.90426801        259.80611280         81.20985513
         67.34872027     -13028.43922552     -10974.79584214      -2055.78347940
      -1979.07110632        299.39318906       -947.91257300
 Electronic spatial extent (au):  <R**2>=           4946.3845
 DipInt: DoE/N= F T RetVal/Mat= T F Init=T NMatP=  1 IDeriv=0 Min/MaxMlt=  0  4
 Nuclear    moments (au):
        126.00000000          0.00000000         -0.00000000         -0.00000000
       3842.32852917        607.58206752        291.41425317          0.00000000
          0.00001719          0.00000006       4388.55145848        640.69830116
         34.28499974       -352.12162745      -1145.79011441       -184.10458544
       -381.61489895       -238.24006365       -106.24119951        515.19359428
     236575.30060664       6571.58262537       1566.99291446      -6318.52443179
      -2230.88814181        236.76161813       -268.53815842        -96.10498360
        -52.94746984      10440.49607098       8516.22488645       1436.55430155
       1867.51563420       -316.86119919        929.19982824
 Total      moments (au):
         -0.00000000         -4.72245032          0.71624904         -1.08699747
        -52.01743662        -76.43439157        -76.60787135         -6.86844090
         -7.24618777         -1.05671906       -260.55534820         -0.59038432
         -2.57761804        -21.19535366        -86.73164362        -63.99338771
        -25.98595896          2.96921361         -2.05377179        -12.95297733
     -12368.28214979      -2395.66658194      -1230.86601131       -479.30276322
       -514.11825642         35.85735012         -8.73204563        -14.89512847
         14.40125043      -2587.94315454      -2458.57095569       -619.22917785
       -111.55547212        -17.46801013        -18.71274476
 Traceless Quadrup. (au):
         16.33579656         -8.08115839         -8.25463817         -6.86844090
         -7.24618777         -1.05671906
 Charge=             -0.0000 electrons
 Dipole moment (field-independent basis, Debye):
    X=            -12.0033    Y=              1.8205    Z=             -2.7629  Tot=             12.4510
 Quadrupole moment (field-independent basis, Debye-Ang):
   XX=            -69.9652   YY=           -102.8069   ZZ=           -103.0402
   XY=             -9.2383   XZ=             -9.7464   YZ=             -1.4213
 Traceless Quadrupole moment (field-independent basis, Debye-Ang):
   XX=             21.9722   YY=            -10.8694   ZZ=            -11.1028
   XY=             -9.2383   XZ=             -9.7464   YZ=             -1.4213
 Octapole moment (field-independent basis, Debye-Ang**2):
  XXX=           -185.4533  YYY=             -0.4202  ZZZ=             -1.8346  XYY=            -15.0860
  XXY=            -61.7322  XXZ=            -45.5480  XZZ=            -18.4958  YZZ=              2.1134
  YYZ=             -1.4618  XYZ=             -9.2194
 Hexadecapole moment (field-independent basis, Debye-Ang**3):
 XXXX=          -4658.4881 YYYY=           -902.3229 ZZZZ=           -463.6032 XXXY=           -180.5284
 XXXZ=           -193.6416 YYYX=             13.5056 YYYZ=             -3.2889 ZZZX=             -5.6102
 ZZZY=              5.4242 XXYY=           -974.7435 XXZZ=           -926.0157 YYZZ=           -233.2314
 XXYZ=            -42.0171 YYXZ=             -6.5793 ZZXY=             -7.0481
 N-N= 1.225581903245D+03 E-N=-4.238004811319D+03  KE= 7.610008315592D+02
 Entering OneElI...
 OneElI was handed    66938950 working-precision words.
 Calculate electrostatic properties
    NBasis =   284  MinDer = 0  MaxDer = 0
    NGrid  =    38  NMatD  =   1
 Requested accuracy = 0.1000D-12
 PrtBox:  NBox=     1 Levels=  1 BoxLen=   29.89 SMaxX=       20.78
          Shift=            9.894153            3.557995            3.893183
 Box      1 Number                   0 centers from      1 to    108:
 ShPair: Thresh= 1.00D-13 NBox=     1 BxSize= 2.99D+01 RnKept= 1.75D+01
         NSMCal=                 5886 NSMKep=                4412
 PrmmSu-InSpLW:  IPartL=    0 NPrtUS=   16 NPrtUL=    1 DoSpLW=F IThBeg=    0 IThEnd=   15 NThAct=   16.
 PrSmSu:  IncTry=   512 NBBP=         167656 NTPThr=   100 NPartT=   16 Incr=         104 LDynOK=F GPUOK=F.
 PrsmSu:  NPrtUS=  16 ThrOK=T IAlg=2 LenDen=           0 ISkipM=0 DoSpLW=F IThBeg=    0 IThEnd=   15.
 Prism:   IPart=     0 DynPar=F LinDyn=F Incr=         104.
 PRISM was handed     4044053 working-precision words and  4412 shell-pairs
 PRISM was handed     4044053 working-precision words and  4412 shell-pairs
 PRISM was handed     4044053 working-precision words and  4412 shell-pairs
 PRISM was handed     4044053 working-precision words and  4412 shell-pairs
 PRISM was handed     4044053 working-precision words and  4412 shell-pairs
 PRISM was handed     4044053 working-precision words and  4412 shell-pairs
 PRISM was handed     4044053 working-precision words and  4412 shell-pairs
 PRISM was handed     4044053 working-precision words and  4412 shell-pairs
 PRISM was handed     4044053 working-precision words and  4412 shell-pairs
 PRISM was handed     4044053 working-precision words and  4412 shell-pairs
 PRISM was handed     4044053 working-precision words and  4412 shell-pairs
 PRISM was handed     4044053 working-precision words and  4412 shell-pairs
 PRISM was handed     4044053 working-precision words and  4412 shell-pairs
 PRISM was handed     4044053 working-precision words and  4412 shell-pairs
 PRISM was handed     4044053 working-precision words and  4412 shell-pairs
 PRISM was handed     4044053 working-precision words and  4412 shell-pairs
 IPart=  8 NShTot=       10336 NBatch=         272 AvBLen=        38.0
 PrsmSu-ThDecC:  IPartSL=    8    0 NPrtUSL=   16    1 IThBeg=    0 IThEnd=   15 CPU=   -1 GPU=   -1 NThAct=   16.
 IPart=  0 NShTot=       11324 NBatch=         298 AvBLen=        38.0
 PrsmSu-ThDecC:  IPartSL=    0    0 NPrtUSL=   16    1 IThBeg=    0 IThEnd=   15 CPU=   -1 GPU=   -1 NThAct=   15.
 IPart=  5 NShTot=       10678 NBatch=         281 AvBLen=        38.0
 PrsmSu-ThDecC:  IPartSL=    5    0 NPrtUSL=   16    1 IThBeg=    0 IThEnd=   15 CPU=   -1 GPU=   -1 NThAct=   14.
 IPart= 13 NShTot=        9918 NBatch=         261 AvBLen=        38.0
 PrsmSu-ThDecC:  IPartSL=   13    0 NPrtUSL=   16    1 IThBeg=    0 IThEnd=   15 CPU=   -1 GPU=   -1 NThAct=   13.
 IPart= 10 NShTot=       10146 NBatch=         267 AvBLen=        38.0
 PrsmSu-ThDecC:  IPartSL=   10    0 NPrtUSL=   16    1 IThBeg=    0 IThEnd=   15 CPU=   -1 GPU=   -1 NThAct=   12.
 IPart=  9 NShTot=       10260 NBatch=         270 AvBLen=        38.0
 IPart= 15 NShTot=        9880 NBatch=         260 AvBLen=        38.0
 PrsmSu-ThDecC:  IPartSL=    9    0 NPrtUSL=   16    1 IThBeg=    0 IThEnd=   15 CPU=   -1 GPU=   -1 NThAct=   11.
 IPart= 14 NShTot=        9880 NBatch=         260 AvBLen=        38.0
 PrsmSu-ThDecC:  IPartSL=   15    0 NPrtUSL=   16    1 IThBeg=    0 IThEnd=   15 CPU=   -1 GPU=   -1 NThAct=   10.
 PrsmSu-ThDecC:  IPartSL=   14    0 NPrtUSL=   16    1 IThBeg=    0 IThEnd=   15 CPU=   -1 GPU=   -1 NThAct=    9.
 IPart=  4 NShTot=       10906 NBatch=         287 AvBLen=        38.0
 PrsmSu-ThDecC:  IPartSL=    4    0 NPrtUSL=   16    1 IThBeg=    0 IThEnd=   15 CPU=   -1 GPU=   -1 NThAct=    8.
 IPart=  1 NShTot=       11210 NBatch=         295 AvBLen=        38.0
 PrsmSu-ThDecC:  IPartSL=    1    0 NPrtUSL=   16    1 IThBeg=    0 IThEnd=   15 CPU=   -1 GPU=   -1 NThAct=    7.
 IPart=  2 NShTot=       11134 NBatch=         293 AvBLen=        38.0
 PrsmSu-ThDecC:  IPartSL=    2    0 NPrtUSL=   16    1 IThBeg=    0 IThEnd=   15 CPU=   -1 GPU=   -1 NThAct=    6.
 IPart= 12 NShTot=        9956 NBatch=         262 AvBLen=        38.0
 PrsmSu-ThDecC:  IPartSL=   12    0 NPrtUSL=   16    1 IThBeg=    0 IThEnd=   15 CPU=   -1 GPU=   -1 NThAct=    5.
 IPart= 11 NShTot=        9956 NBatch=         262 AvBLen=        38.0
 PrsmSu-ThDecC:  IPartSL=   11    0 NPrtUSL=   16    1 IThBeg=    0 IThEnd=   15 CPU=   -1 GPU=   -1 NThAct=    4.
 IPart=  3 NShTot=       11096 NBatch=         292 AvBLen=        38.0
 PrsmSu-ThDecC:  IPartSL=    3    0 NPrtUSL=   16    1 IThBeg=    0 IThEnd=   15 CPU=   -1 GPU=   -1 NThAct=    3.
 IPart=  7 NShTot=       10412 NBatch=         274 AvBLen=        38.0
 IPart=  6 NShTot=       10564 NBatch=         278 AvBLen=        38.0
 PrsmSu-ThDecC:  IPartSL=    7    0 NPrtUSL=   16    1 IThBeg=    0 IThEnd=   15 CPU=   -1 GPU=   -1 NThAct=    2.
 PrsmSu-ThDecC:  IPartSL=    6    0 NPrtUSL=   16    1 IThBeg=    0 IThEnd=   15 CPU=   -1 GPU=   -1 NThAct=    1.
 PrSmSu:  NxtVal=           1665.
 --------------------------------------------------------
       Center         ----      EFG at Nuclei      ----
                      3XX-RR        3YY-RR        3ZZ-RR
 --------------------------------------------------------
     1   Atom       -0.006984      0.004264      0.002720
     2   Atom        0.094274     -0.048350     -0.045924
[...]
  663 Fit       0.046991
  664 Fit       0.048779
  665 Fit       0.044094
  666 Fit       0.044644
  667 Fit       0.043842
  668 Fit       0.043248
  669 Fit       0.044294
  670 Fit       0.047527
  671 Fit       0.043764
  672 Fit       0.043351
  673 Fit       0.044565
  674 Fit       0.047572
  675 Fit       0.045100
  676 Fit      -0.039022
  677 Fit      -0.023596
  678 Fit      -0.041168
  679 Fit      -0.014386
  680 Fit      -0.010709
  681 Fit      -0.007590
  682 Fit      -0.006415
  683 Fit      -0.007174
  684 Fit      -0.011132
  685 Fit      -0.005812
  686 Fit      -0.007275
  687 Fit      -0.008510
  688 Fit      -0.007045
  689 Fit      -0.006547
  690 Fit      -0.005463
  691 Fit      -0.004662
  692 Fit      -0.004340
  693 Fit      -0.005075
  694 Fit      -0.004689
  695 Fit      -0.005847
  696 Fit      -0.004291
  697 Fit      -0.003617
  698 Fit      -0.003482
  699 Fit      -0.004067
  700 Fit      -0.027268
  701 Fit      -0.018984
  702 Fit      -0.038070
  703 Fit      -0.019309
  704 Fit      -0.014517
  705 Fit      -0.013405
  706 Fit      -0.023227
  707 Fit      -0.017885
  708 Fit      -0.012297
  709 Fit      -0.009230
  710 Fit      -0.009382
  711 Fit      -0.010512
  712 Fit      -0.008631
  713 Fit      -0.007077
  714 Fit      -0.007614
  715 Fit      -0.023295
  716 Fit      -0.037146
  717 Fit      -0.009902
  718 Fit      -0.012118
  719 Fit      -0.016623
  720 Fit      -0.023715
  721 Fit      -0.006209
  722 Fit      -0.007155
  723 Fit      -0.009631
  724 Fit      -0.012418
  725 Fit      -0.012342
  726 Fit      -0.006328
  727 Fit      -0.004962
  728 Fit      -0.005830
  729 Fit      -0.007410
  730 Fit      -0.005587
  731 Fit      -0.044949
  732 Fit      -0.031960
  733 Fit      -0.019703
  734 Fit      -0.055487
  735 Fit      -0.055515
  736 Fit      -0.056980
  737 Fit      -0.055204
  738 Fit      -0.052522
  739 Fit      -0.051850
  740 Fit      -0.051658
  741 Fit      -0.053534
  742 Fit      -0.056809
  743 Fit      -0.056556
  744 Fit      -0.054366
  745 Fit      -0.050436
  746 Fit      -0.040434
  747 Fit      -0.046319
  748 Fit      -0.048215
  749 Fit      -0.053657
  750 Fit      -0.054849
  751 Fit      -0.053309
  752 Fit      -0.049485
  753 Fit      -0.046063
  754 Fit      -0.049272
  755 Fit      -0.048147
  756 Fit      -0.039657
  757 Fit      -0.041515
  758 Fit      -0.031557
  759 Fit      -0.039402
  760 Fit      -0.027737
  761 Fit      -0.013535
  762 Fit      -0.018734
  763 Fit      -0.024480
  764 Fit      -0.023213
  765 Fit      -0.028134
  766 Fit      -0.005794
  767 Fit      -0.014129
  768 Fit      -0.045152
  769 Fit      -0.048861
  770 Fit      -0.053602
  771 Fit      -0.042959
  772 Fit      -0.057311
  773 Fit      -0.047371
  774 Fit      -0.052273
  775 Fit      -0.052403
  776 Fit      -0.043016
  777 Fit      -0.047037
  778 Fit      -0.049265
  779 Fit      -0.040496
  780 Fit      -0.031342
  781 Fit      -0.044333
  782 Fit      -0.044916
  783 Fit      -0.033508
  784 Fit      -0.037861
  785 Fit      -0.034442
  786 Fit      -0.025040
  787 Fit      -0.024148
  788 Fit      -0.037190
  789 Fit      -0.042131
  790 Fit      -0.036900
  791 Fit      -0.024630
  792 Fit      -0.014952
  793 Fit      -0.008794
  794 Fit      -0.009291
  795 Fit       0.015015
  796 Fit       0.002803
  797 Fit       0.010723
  798 Fit       0.010983
  799 Fit       0.029324
  800 Fit       0.015043
  801 Fit       0.013425
  802 Fit       0.002582
  803 Fit       0.020748
  804 Fit       0.008481
  805 Fit       0.025386
  806 Fit       0.016184
  807 Fit       0.039805
  808 Fit       0.019605
  809 Fit       0.006026
  810 Fit       0.010240
  811 Fit       0.042255
  812 Fit       0.042260
  813 Fit       0.042338
  814 Fit       0.041855
  815 Fit       0.042096
  816 Fit       0.042321
  817 Fit      -0.005200
  818 Fit      -0.000291
  819 Fit      -0.000498
  820 Fit      -0.019456
  821 Fit       0.021137
  822 Fit       0.009391
  823 Fit      -0.043977
  824 Fit      -0.052127
  825 Fit      -0.043478
  826 Fit      -0.030121
  827 Fit      -0.026576
  828 Fit      -0.039911
  829 Fit      -0.051321
  830 Fit      -0.045393
  831 Fit      -0.053541
  832 Fit      -0.054709
  833 Fit      -0.043608
  834 Fit      -0.053127
  835 Fit      -0.053080
  836 Fit      -0.047642
  837 Fit      -0.032650
  838 Fit      -0.043627
  839 Fit      -0.035091
  840 Fit      -0.023372
  841 Fit      -0.034952
  842 Fit      -0.047104
  843 Fit      -0.039602
  844 Fit      -0.043806
  845 Fit      -0.043329
  846 Fit      -0.035200
  847 Fit      -0.024794
  848 Fit      -0.012359
  849 Fit      -0.040406
  850 Fit      -0.021994
  851 Fit      -0.011347
  852 Fit      -0.022105
  853 Fit      -0.013399
  854 Fit      -0.015794
  855 Fit      -0.013860
  856 Fit      -0.008669
  857 Fit      -0.001271
  858 Fit      -0.011081
  859 Fit      -0.006558
  860 Fit      -0.000851
  861 Fit      -0.001813
  862 Fit      -0.018240
  863 Fit      -0.017088
  864 Fit      -0.007567
  865 Fit      -0.002558
  866 Fit      -0.013071
  867 Fit      -0.004080
  868 Fit       0.005516
  869 Fit       0.010381
  870 Fit      -0.003175
  871 Fit      -0.015734
  872 Fit      -0.014108
  873 Fit      -0.004449
  874 Fit       0.003704
  875 Fit       0.012895
  876 Fit      -0.008704
  877 Fit      -0.001598
  878 Fit       0.004468
  879 Fit       0.010620
  880 Fit      -0.001209
  881 Fit       0.004364
  882 Fit       0.009479
  883 Fit       0.015575
  884 Fit      -0.003100
  885 Fit       0.002949
  886 Fit       0.008384
  887 Fit       0.014297
  888 Fit       0.003725
  889 Fit       0.010376
  890 Fit       0.006169
  891 Fit       0.021437
  892 Fit       0.031522
  893 Fit       0.017696
  894 Fit       0.023728
  895 Fit       0.032999
  896 Fit       0.014910
  897 Fit       0.020361
  898 Fit       0.028165
  899 Fit       0.015451
  900 Fit       0.023086
  901 Fit       0.032499
  902 Fit       0.020160
  903 Fit      -0.004328
  904 Fit       0.007239
  905 Fit      -0.010989
  906 Fit       0.009542
  907 Fit      -0.005768
  908 Fit      -0.001137
  909 Fit       0.024276
  910 Fit       0.020290
  911 Fit       0.029130
  912 Fit       0.038560
  913 Fit       0.021013
  914 Fit       0.027678
  915 Fit       0.036057
  916 Fit       0.026176
  917 Fit       0.033599
  918 Fit       0.043873
  919 Fit       0.025282
  920 Fit       0.047336
  921 Fit       0.035772
  922 Fit       0.025539
  923 Fit       0.013689
  924 Fit       0.036980
  925 Fit       0.028559
  926 Fit       0.019476
  927 Fit       0.008396
  928 Fit       0.031824
  929 Fit       0.023923
  930 Fit       0.036156
  931 Fit       0.041929
  932 Fit       0.010556
  933 Fit       0.021534
  934 Fit       0.029948
  935 Fit       0.029781
  936 Fit       0.023005
  937 Fit       0.012420
  938 Fit       0.021331
  939 Fit      -0.025719
  940 Fit       0.040337
  941 Fit       0.033968
  942 Fit       0.028583
  943 Fit       0.022456
  944 Fit       0.047248
  945 Fit       0.039359
  946 Fit       0.033321
  947 Fit       0.027275
  948 Fit       0.019834
  949 Fit       0.046273
  950 Fit       0.037484
  951 Fit       0.030251
  952 Fit      -0.013789
  953 Fit       0.003477
  954 Fit      -0.021127
  955 Fit      -0.007726
  956 Fit      -0.024826
  957 Fit       0.021062
  958 Fit       0.009978
  959 Fit       0.021536
  960 Fit       0.029472
  961 Fit       0.028676
  962 Fit       0.023167
  963 Fit       0.013741
  964 Fit       0.038543
  965 Fit       0.040616
  966 Fit       0.037695
  967 Fit       0.033508
  968 Fit       0.043163
  969 Fit       0.046261
  970 Fit       0.041953
  971 Fit       0.041057
  972 Fit       0.042506
  973 Fit       0.046933
  974 Fit       0.041031
  975 Fit       0.040310
  976 Fit       0.041688
  977 Fit       0.040513
  978 Fit       0.041317
  979 Fit       0.042761
  980 Fit       0.042066
  981 Fit       0.042632
  982 Fit       0.041316
  983 Fit       0.040286
  984 Fit       0.040688
  985 Fit       0.042373
  986 Fit       0.046577
  987 Fit       0.043026
  988 Fit       0.041011
  989 Fit       0.040911
  990 Fit       0.041893
  991 Fit       0.039851
  992 Fit       0.039955
  993 Fit       0.042065
  994 Fit       0.038459
  995 Fit       0.039235
  996 Fit       0.041511
  997 Fit       0.038647
  998 Fit       0.038620
  999 Fit       0.040342
 1000 Fit       0.040379
 1001 Fit      -0.025079
 1002 Fit      -0.021926
 1003 Fit      -0.012050
 1004 Fit      -0.013708
 1005 Fit      -0.010210
 1006 Fit      -0.009141
 1007 Fit      -0.007102
 1008 Fit      -0.007041
 1009 Fit      -0.007858
 1010 Fit      -0.006111
 1011 Fit      -0.006681
 1012 Fit      -0.010553
 1013 Fit      -0.005563
 1014 Fit      -0.005399
 1015 Fit      -0.007209
 1016 Fit      -0.005525
 1017 Fit      -0.011086
 1018 Fit      -0.008753
 1019 Fit      -0.010339
 1020 Fit      -0.007899
 1021 Fit      -0.006401
 1022 Fit      -0.006029
 1023 Fit      -0.007171
 1024 Fit      -0.005416
 1025 Fit      -0.004706
 1026 Fit      -0.005040
 1027 Fit      -0.004873
 1028 Fit      -0.006271
 1029 Fit      -0.005897
 1030 Fit      -0.004892
 1031 Fit      -0.004260
 1032 Fit      -0.004806
 1033 Fit      -0.028271
 1034 Fit      -0.020753
 1035 Fit      -0.021316
 1036 Fit      -0.016680
 1037 Fit      -0.015286
 1038 Fit      -0.024853
 1039 Fit      -0.020078
 1040 Fit      -0.014131
 1041 Fit      -0.011203
 1042 Fit      -0.011413
 1043 Fit      -0.011887
 1044 Fit      -0.017761
 1045 Fit      -0.012329
 1046 Fit      -0.009346
 1047 Fit      -0.008197
 1048 Fit      -0.008961
 1049 Fit      -0.009799
 1050 Fit      -0.008036
 1051 Fit      -0.007244
 1052 Fit      -0.007802
 1053 Fit      -0.012420
 1054 Fit      -0.015653
 1055 Fit      -0.021247
 1056 Fit      -0.030664
 1057 Fit      -0.008370
 1058 Fit      -0.009839
 1059 Fit      -0.012599
 1060 Fit      -0.016616
 1061 Fit      -0.020449
 1062 Fit      -0.006129
 1063 Fit      -0.006983
 1064 Fit      -0.008813
 1065 Fit      -0.010746
 1066 Fit      -0.005383
 1067 Fit      -0.006215
 1068 Fit      -0.007363
 1069 Fit      -0.005795
 1070 Fit      -0.032530
 1071 Fit      -0.027456
 1072 Fit      -0.025670
 1073 Fit      -0.016580
 1074 Fit      -0.047890
 1075 Fit      -0.047873
 1076 Fit      -0.048933
 1077 Fit      -0.047423
 1078 Fit      -0.045925
 1079 Fit      -0.045854
 1080 Fit      -0.045408
 1081 Fit      -0.046415
 1082 Fit      -0.048770
 1083 Fit      -0.048896
 1084 Fit      -0.047432
 1085 Fit      -0.044755
 1086 Fit      -0.043345
 1087 Fit      -0.039430
 1088 Fit      -0.038594
 1089 Fit      -0.042079
 1090 Fit      -0.042969
 1091 Fit      -0.046783
 1092 Fit      -0.047846
 1093 Fit      -0.046908
 1094 Fit      -0.044343
 1095 Fit      -0.040001
 1096 Fit      -0.042008
 1097 Fit      -0.044386
 1098 Fit      -0.044369
 1099 Fit      -0.042238
 1100 Fit      -0.038405
 1101 Fit      -0.038547
 1102 Fit      -0.030193
 1103 Fit      -0.029622
 1104 Fit      -0.040605
 1105 Fit      -0.036158
 1106 Fit      -0.026411
 1107 Fit      -0.025422
 1108 Fit      -0.012131
 1109 Fit      -0.014019
 1110 Fit      -0.023275
 1111 Fit      -0.025420
 1112 Fit      -0.008400
 1113 Fit      -0.014594
 1114 Fit      -0.041157
 1115 Fit      -0.047159
 1116 Fit      -0.040104
 1117 Fit      -0.047971
 1118 Fit      -0.045881
 1119 Fit      -0.039357
 1120 Fit      -0.042984
 1121 Fit      -0.039800
 1122 Fit      -0.029237
 1123 Fit      -0.038460
 1124 Fit      -0.039222
 1125 Fit      -0.031437
 1126 Fit      -0.028751
 1127 Fit      -0.036091
 1128 Fit      -0.035541
 1129 Fit      -0.027944
 1130 Fit      -0.030544
 1131 Fit      -0.026939
 1132 Fit      -0.018996
 1133 Fit      -0.018340
 1134 Fit      -0.028976
 1135 Fit      -0.033548
 1136 Fit      -0.028717
 1137 Fit      -0.006692
 1138 Fit      -0.007299
 1139 Fit      -0.000489
 1140 Fit      -0.012206
 1141 Fit      -0.003636
 1142 Fit       0.003247
 1143 Fit       0.010896
 1144 Fit       0.015814
 1145 Fit       0.002577
 1146 Fit       0.009523
 1147 Fit       0.010113
 1148 Fit       0.012236
 1149 Fit       0.010424
 1150 Fit       0.001708
 1151 Fit       0.017086
 1152 Fit       0.006359
 1153 Fit       0.021250
 1154 Fit       0.012816
 1155 Fit       0.000628
 1156 Fit       0.032178
 1157 Fit       0.012580
 1158 Fit       0.000038
 1159 Fit       0.007408
 1160 Fit       0.009458
 1161 Fit       0.040165
 1162 Fit       0.042213
 1163 Fit       0.038825
 1164 Fit       0.038400
 1165 Fit       0.038601
 1166 Fit       0.037611
 1167 Fit       0.037518
 1168 Fit       0.038129
 1169 Fit       0.037592
 1170 Fit       0.037934
 1171 Fit       0.037745
 1172 Fit       0.037980
 1173 Fit       0.038674
 1174 Fit       0.000453
 1175 Fit      -0.004691
 1176 Fit       0.029927
 1177 Fit       0.013076
 1178 Fit      -0.000402
 1179 Fit      -0.014472
 1180 Fit       0.018167
 1181 Fit       0.008069
 1182 Fit      -0.035904
 1183 Fit      -0.043685
 1184 Fit      -0.036227
 1185 Fit      -0.024752
 1186 Fit      -0.021840
 1187 Fit      -0.032657
 1188 Fit      -0.042445
 1189 Fit      -0.019798
 1190 Fit      -0.027677
 1191 Fit      -0.039825
 1192 Fit      -0.045615
 1193 Fit      -0.047380
 1194 Fit      -0.038508
 1195 Fit      -0.045291
 1196 Fit      -0.046637
 1197 Fit      -0.034454
 1198 Fit      -0.044980
 1199 Fit      -0.031334
 1200 Fit      -0.039733
 1201 Fit      -0.032805
 1202 Fit      -0.023453
 1203 Fit      -0.031668
 1204 Fit      -0.041478
 1205 Fit      -0.037386
 1206 Fit      -0.038916
 1207 Fit      -0.020598
 1208 Fit      -0.041175
 1209 Fit      -0.034977
 1210 Fit      -0.026535
 1211 Fit      -0.027435
 1212 Fit      -0.015105
 1213 Fit      -0.019963
 1214 Fit      -0.011198
 1215 Fit      -0.018593
 1216 Fit      -0.012027
 1217 Fit      -0.013117
 1218 Fit      -0.011357
 1219 Fit      -0.006997
 1220 Fit      -0.000886
 1221 Fit      -0.010015
 1222 Fit      -0.005935
 1223 Fit      -0.001118
 1224 Fit      -0.002139
 1225 Fit      -0.014810
 1226 Fit      -0.014908
 1227 Fit      -0.007099
 1228 Fit      -0.003811
 1229 Fit      -0.013327
 1230 Fit      -0.004900
 1231 Fit       0.003818
 1232 Fit       0.007505
 1233 Fit      -0.004583
 1234 Fit      -0.015702
 1235 Fit      -0.014441
 1236 Fit      -0.004905
 1237 Fit       0.003011
 1238 Fit       0.011237
 1239 Fit      -0.002839
 1240 Fit       0.003347
 1241 Fit      -0.004269
 1242 Fit       0.001422
 1243 Fit       0.006472
 1244 Fit       0.012062
 1245 Fit      -0.002000
 1246 Fit       0.003175
 1247 Fit       0.007970
 1248 Fit       0.013455
 1249 Fit      -0.003018
 1250 Fit       0.002494
 1251 Fit       0.007666
 1252 Fit       0.013498
 1253 Fit       0.003317
 1254 Fit       0.009436
 1255 Fit       0.020383
 1256 Fit       0.028134
 1257 Fit       0.015110
 1258 Fit       0.019856
 1259 Fit       0.026829
 1260 Fit       0.013433
 1261 Fit       0.018573
 1262 Fit       0.025576
 1263 Fit       0.014407
 1264 Fit       0.021118
 1265 Fit       0.029031
 1266 Fit       0.018832
 1267 Fit      -0.003522
 1268 Fit       0.006538
 1269 Fit      -0.007587
 1270 Fit       0.008465
 1271 Fit      -0.005736
 1272 Fit      -0.002901
 1273 Fit       0.021247
 1274 Fit       0.017514
 1275 Fit       0.025495
 1276 Fit       0.033319
 1277 Fit       0.017909
 1278 Fit       0.024141
 1279 Fit       0.031539
 1280 Fit       0.020933
 1281 Fit       0.027226
 1282 Fit       0.034800
 1283 Fit       0.030274
 1284 Fit       0.038721
 1285 Fit       0.031531
 1286 Fit       0.020813
 1287 Fit       0.008108
 1288 Fit       0.035346
 1289 Fit       0.027036
 1290 Fit       0.018522
 1291 Fit       0.008101
 1292 Fit       0.031973
 1293 Fit       0.024706
 1294 Fit       0.016771
 1295 Fit       0.007251
 1296 Fit       0.028350
 1297 Fit       0.021201
 1298 Fit      -0.004858
 1299 Fit       0.021088
 1300 Fit       0.030367
 1301 Fit       0.035989
 1302 Fit       0.035685
 1303 Fit       0.009575
 1304 Fit       0.018526
 1305 Fit       0.025773
 1306 Fit       0.025974
 1307 Fit       0.020076
 1308 Fit       0.011062
 1309 Fit       0.018616
 1310 Fit       0.030158
 1311 Fit       0.025035
 1312 Fit       0.019425
 1313 Fit       0.037030
 1314 Fit       0.031462
 1315 Fit       0.026472
 1316 Fit       0.020913
 1317 Fit       0.013829
 1318 Fit       0.035738
 1319 Fit       0.029822
 1320 Fit       0.023830
 1321 Fit       0.016305
 1322 Fit       0.036297
 1323 Fit      -0.012325
 1324 Fit      -0.019031
 1325 Fit      -0.013384
 1326 Fit      -0.014160
 1327 Fit       0.017882
 1328 Fit       0.008454
 1329 Fit       0.017903
 1330 Fit       0.024882
 1331 Fit       0.024586
 1332 Fit       0.019683
 1333 Fit       0.011434
 1334 Fit       0.008622
 1335 Fit       0.023176
 1336 Fit       0.031322
 1337 Fit       0.033715
 1338 Fit       0.032091
 1339 Fit       0.028847
 1340 Fit       0.037623
 1341 Fit       0.040731
 1342 Fit       0.038318
 1343 Fit       0.038302
 1344 Fit       0.040648
 1345 Fit       0.037049
 1346 Fit       0.037037
 1347 Fit       0.038580
 1348 Fit       0.037321
 1349 Fit       0.036436
 1350 Fit       0.037306
 1351 Fit       0.037059
 1352 Fit       0.037387
 1353 Fit       0.038148
 1354 Fit       0.038899
 1355 Fit       0.037429
 1356 Fit       0.036529
 1357 Fit       0.036978
 1358 Fit       0.038660
 1359 Fit       0.037068
 1360 Fit       0.036543
 1361 Fit       0.036962
 1362 Fit       0.038243
 1363 Fit       0.037508
 1364 Fit       0.035260
 1365 Fit       0.036385
 1366 Fit       0.034419
 1367 Fit       0.035276
 1368 Fit       0.037222
 1369 Fit       0.034610
 1370 Fit       0.034830
 1371 Fit       0.036564
 1372 Fit       0.036385
 -----------------------------------------------------------------
 Leave Link  602 at Sun May 31 21:57:55 2026, MaxMem=    67108864 cpu:               1.2 elap:               0.1
 (Enter /software/local/apps/gaussian-16.0/g16/l9999.exe)

 Test job not archived.
 1\1\GINC-BP1-COMPUTE077\SP\RHF\6-31G(d)\C11H22N2O3\XV24323\31-May-2026
 \0\\#p hf/6-31g(d) SCF=Tight Pop=MK IOp(6/33=2)\\KM3_cterm\\0,1\C,0,5.
 120796,0.807404,0.585549\H,0,4.777001,1.545043,1.317751\H,0,5.73594,1.
 315024,-0.164653\H,0,5.759643,0.074256,1.087742\C,0,3.988756,0.071681,
 -0.124191\O,0,4.215749,-0.820356,-0.940209\N,0,2.735796,0.483844,0.198
 065\H,0,2.571964,1.170898,0.923793\C,0,1.519044,-0.08558,-0.373318\C,0
 ,0.39559,0.971511,-0.199858\O,0,0.265814,1.436636,0.965062\C,0,1.20491
 1,-1.424235,0.348021\C,0,-0.096034,-2.174092,-0.012989\C,0,-1.394557,-
 1.560355,0.595408\C,0,-2.201498,-0.84879,-0.489934\N,0,-3.23435,0.2008
 49,-0.014073\C,0,-3.426624,1.16335,-1.160149\C,0,-4.528093,-0.469325,0
 .325295\C,0,-2.764577,1.00031,1.181307\O,0,-0.324039,1.218431,-1.20869
 9\H,0,1.690303,-0.271252,-1.436355\H,0,2.053001,-2.087356,0.143495\H,0
 ,1.207113,-1.223252,1.427187\H,0,-0.190377,-2.26149,-1.104466\H,0,0.00
 1679,-3.201354,0.356949\H,0,-1.994401,-2.340741,1.081218\H,0,-1.090523
 ,-0.849333,1.366478\H,0,-1.516522,-0.283994,-1.124883\H,0,-2.776582,-1
 .556087,-1.096329\H,0,-3.47621,1.817635,1.319917\H,0,-2.780347,0.35530
 2,2.060184\H,0,-1.746608,1.382911,1.010937\H,0,-4.202625,1.88281,-0.88
 9129\H,0,-2.456321,1.643349,-1.328169\H,0,-3.732563,0.595818,-2.041726
 \H,0,-5.23576,0.27805,0.690423\H,0,-4.927701,-0.951957,-0.568619\H,0,-
 4.346695,-1.216093,1.100244\\Version=ES64L-G16RevC.01\State=1-A\HF=-76
 2.8121543\RMSD=3.556e-09\Dipole=-4.7224503,-0.716249,1.0869975\Quadrup
 ole=16.3357966,-8.0811584,-8.2546382,6.8684409,7.2461878,-1.0567191\PG
 =C01 [X(C11H22N2O3)]\\@


 THERE IS MORE TO LIFE THAN INCREASING ITS SPEED.

                                       -- GANDHI
 Job cpu time:       0 days  0 hours  2 minutes 53.0 seconds.
 Elapsed time:       0 days  0 hours  0 minutes 11.1 seconds.
 File lengths (MBytes):  RWF=    160 Int=      0 D2E=      0 Chk=     16 Scr=     16
 Normal termination of Gaussian 16 at Sun May 31 21:57:55 2026.
